# Forces      
# CofR        : (0.000000e+00 0.000000e+00 0.000000e+00)
# Time        forces(pressure viscous porous)	moments(pressure viscous porous)
2.5e-06       	((9.168089e-01 1.225913e+01 8.480006e-01) (9.152749e-04 3.752354e-01 8.574845e-03) (0.000000e+00 0.000000e+00 0.000000e+00)) ((-3.629700e+00 -7.613230e+00 1.134536e+02) (-2.918479e-01 -8.617325e-02 3.742898e+00) (0.000000e+00 0.000000e+00 0.000000e+00))
5e-06         	((1.239841e+00 5.112699e+01 2.472244e+00) (4.736885e-03 4.777118e-01 2.087374e-03) (0.000000e+00 0.000000e+00 0.000000e+00)) ((-2.394530e+01 -2.392480e+01 4.986959e+02) (-4.127831e-01 -1.847890e-02 4.727460e+00) (0.000000e+00 0.000000e+00 0.000000e+00))
7.5e-06       	((-7.366364e-01 1.049439e+02 1.651616e+01) (8.125099e-03 4.428731e-01 -2.262216e-04) (0.000000e+00 0.000000e+00 0.000000e+00)) ((5.606835e+01 -1.663550e+02 1.057541e+03) (-3.991153e-01 6.970396e-03 4.344800e+00) (0.000000e+00 0.000000e+00 0.000000e+00))
1e-05         	((1.434784e+00 6.876477e+01 2.689583e+00) (1.038139e-02 3.700917e-01 -5.011729e-02) (0.000000e+00 0.000000e+00 0.000000e+00)) ((-3.985087e+01 -2.569781e+01 6.733830e+02) (-8.212698e-01 5.089322e-01 3.592655e+00) (0.000000e+00 0.000000e+00 0.000000e+00))
1.25e-05      	((3.298937e+00 1.410604e+01 -1.364526e+01) (1.172420e-02 3.475170e-01 -3.082916e-02) (0.000000e+00 0.000000e+00 0.000000e+00)) ((-1.428009e+02 1.399276e+02 1.074777e+02) (-6.092407e-01 3.181556e-01 3.354533e+00) (0.000000e+00 0.000000e+00 0.000000e+00))
1.5e-05       	((2.028978e+00 -2.232517e-01 -1.039860e+01) (9.742509e-03 3.166554e-01 -1.501304e-02) (0.000000e+00 0.000000e+00 0.000000e+00)) ((-9.746137e+01 1.063638e+02 -2.292334e+01) (-4.254670e-01 1.579402e-01 3.067514e+00) (0.000000e+00 0.000000e+00 0.000000e+00))
1.75e-05      	((-7.172221e-02 8.970227e+00 2.020697e-01) (8.346962e-03 3.168692e-01 -1.798360e-03) (0.000000e+00 0.000000e+00 0.000000e+00)) ((-4.821756e+00 -1.766107e+00 9.053549e+01) (-3.036653e-01 2.481084e-02 3.084174e+00) (0.000000e+00 0.000000e+00 0.000000e+00))
2e-05         	((-6.014400e-01 1.773387e+01 5.607697e+00) (4.609240e-03 3.129975e-01 4.020119e-03) (0.000000e+00 0.000000e+00 0.000000e+00)) ((3.791004e+01 -5.638070e+01 1.837001e+02) (-2.454823e-01 -3.703787e-02 3.083596e+00) (0.000000e+00 0.000000e+00 0.000000e+00))
2.25e-05      	((-2.149499e-01 1.705114e+01 4.080500e+00) (2.221632e-03 3.001082e-01 -2.541921e-04) (0.000000e+00 0.000000e+00 0.000000e+00)) ((2.322673e+01 -4.073268e+01 1.729860e+02) (-2.735138e-01 3.146590e-03 2.978898e+00) (0.000000e+00 0.000000e+00 0.000000e+00))
2.5e-05       	((8.869764e-02 1.026398e+01 -2.940863e-01) (8.199615e-04 2.891531e-01 -6.584428e-03) (0.000000e+00 0.000000e+00 0.000000e+00)) ((-1.252101e+01 3.309309e+00 1.020002e+02) (-3.231770e-01 6.497142e-02 2.883353e+00) (0.000000e+00 0.000000e+00 0.000000e+00))
2.75e-05      	((4.770495e-02 5.341719e+00 -2.737304e+00) (2.187606e-04 2.752152e-01 -1.076185e-02) (0.000000e+00 0.000000e+00 0.000000e+00)) ((-3.109493e+01 2.767239e+01 5.315899e+01) (-3.483255e-01 1.061895e-01 2.750039e+00) (0.000000e+00 0.000000e+00 0.000000e+00))
3e-05         	((-9.735887e-02 5.861002e+00 -1.795654e+00) (6.250134e-04 2.680040e-01 -1.006341e-02) (0.000000e+00 0.000000e+00 0.000000e+00)) ((-2.219232e+01 1.806670e+01 5.981365e+01) (-3.329697e-01 9.972139e-02 2.673857e+00) (0.000000e+00 0.000000e+00 0.000000e+00))
3.25e-05      	((-1.188927e-01 9.356151e+00 6.130185e-01) (1.511065e-03 2.685959e-01 -6.296177e-03) (0.000000e+00 0.000000e+00 0.000000e+00)) ((-2.169516e+00 -6.076186e+00 9.499109e+01) (-2.966553e-01 6.294571e-02 2.670862e+00) (0.000000e+00 0.000000e+00 0.000000e+00))
3.5e-05       	((-7.121188e-03 1.158754e+01 2.014287e+00) (2.228278e-03 2.717314e-01 -2.610708e-03) (0.000000e+00 0.000000e+00 0.000000e+00)) ((9.132734e+00 -1.998886e+01 1.161791e+02) (-2.645268e-01 2.672976e-02 2.695025e+00) (0.000000e+00 0.000000e+00 0.000000e+00))
3.75e-05      	((1.205000e-01 1.096888e+01 1.694527e+00) (2.642683e-03 2.717437e-01 -9.245826e-04) (0.000000e+00 0.000000e+00 0.000000e+00)) ((6.472960e+00 -1.665932e+01 1.086996e+02) (-2.489783e-01 1.019006e-02 2.690992e+00) (0.000000e+00 0.000000e+00 0.000000e+00))
4e-05         	((1.831763e-01 8.954075e+00 5.933960e-01) (2.597076e-03 2.673589e-01 -1.412857e-03) (0.000000e+00 0.000000e+00 0.000000e+00)) ((-2.348452e+00 -5.579821e+00 8.791320e+01) (-2.502045e-01 1.497295e-02 2.647597e+00) (0.000000e+00 0.000000e+00 0.000000e+00))
4.25e-05      	((1.761830e-01 7.659930e+00 -9.160911e-02) (2.538142e-03 2.611952e-01 -2.945873e-03) (0.000000e+00 0.000000e+00 0.000000e+00)) ((-7.755480e+00 1.263465e+00 7.503858e+01) (-2.596886e-01 3.015187e-02 2.586540e+00) (0.000000e+00 0.000000e+00 0.000000e+00))
4.5e-05       	((1.361557e-01 7.860425e+00 3.322794e-02) (2.523878e-03 2.565516e-01 -3.999330e-03) (0.000000e+00 0.000000e+00 0.000000e+00)) ((-6.724454e+00 -2.816955e-02 7.744517e+01) (-2.659064e-01 4.062626e-02 2.540214e+00) (0.000000e+00 0.000000e+00 0.000000e+00))
4.75e-05      	((1.005911e-01 8.844160e+00 5.631630e-01) (2.538534e-03 2.549381e-01 -3.880115e-03) (0.000000e+00 0.000000e+00 0.000000e+00)) ((-2.538793e+00 -5.367335e+00 8.763972e+01) (-2.635752e-01 3.946857e-02 2.523884e+00) (0.000000e+00 0.000000e+00 0.000000e+00))
5e-05         	((8.798403e-02 9.535975e+00 9.407740e-01) (2.573131e-03 2.553557e-01 -3.054077e-03) (0.000000e+00 0.000000e+00 0.000000e+00)) ((4.291376e-01 -9.161749e+00 9.468473e+01) (-2.561989e-01 3.130006e-02 2.527689e+00) (0.000000e+00 0.000000e+00 0.000000e+00))
5.25e-05      	((8.331831e-02 9.517089e+00 9.828636e-01) (2.594972e-03 2.559624e-01 -2.360604e-03) (0.000000e+00 0.000000e+00 0.000000e+00)) ((8.301513e-01 -9.594722e+00 9.454327e+01) (-2.503712e-01 2.446013e-02 2.533551e+00) (0.000000e+00 0.000000e+00 0.000000e+00))
5.5e-05       	((6.854008e-02 9.058961e+00 8.450693e-01) (2.665145e-03 2.555129e-01 -2.143052e-03) (0.000000e+00 0.000000e+00 0.000000e+00)) ((-6.982765e-02 -8.240686e+00 9.011108e+01) (-2.482318e-01 2.241386e-02 2.528364e+00) (0.000000e+00 0.000000e+00 0.000000e+00))
5.75e-05      	((4.663231e-02 8.622723e+00 7.081759e-01) (2.742165e-03 2.543945e-01 -2.421873e-03) (0.000000e+00 0.000000e+00 0.000000e+00)) ((-9.715532e-01 -6.902630e+00 8.596841e+01) (-2.502362e-01 2.536365e-02 2.516440e+00) (0.000000e+00 0.000000e+00 0.000000e+00))
6e-05         	((1.918392e-02 8.491351e+00 6.794285e-01) (2.803422e-03 2.527872e-01 -2.917122e-03) (0.000000e+00 0.000000e+00 0.000000e+00)) ((-1.122954e+00 -6.648235e+00 8.492928e+01) (-2.539158e-01 3.045681e-02 2.499772e+00) (0.000000e+00 0.000000e+00 0.000000e+00))
6.25e-05      	((-1.647718e-02 8.582082e+00 7.407266e-01) (2.851069e-03 2.513877e-01 -3.309658e-03) (0.000000e+00 0.000000e+00 0.000000e+00)) ((-6.191688e-01 -7.299822e+00 8.619346e+01) (-2.567260e-01 3.450220e-02 2.485320e+00) (0.000000e+00 0.000000e+00 0.000000e+00))
6.5e-05       	((-5.318493e-02 8.753094e+00 8.342593e-01) (2.794919e-03 2.505410e-01 -3.581471e-03) (0.000000e+00 0.000000e+00 0.000000e+00)) ((1.153602e-01 -8.272995e+00 8.827079e+01) (-2.589340e-01 3.722535e-02 2.477406e+00) (0.000000e+00 0.000000e+00 0.000000e+00))
6.75e-05      	((-8.595343e-02 8.870706e+00 9.103142e-01) (2.739355e-03 2.498767e-01 -3.746944e-03) (0.000000e+00 0.000000e+00 0.000000e+00)) ((7.309583e-01 -9.065575e+00 8.977550e+01) (-2.601844e-01 3.891085e-02 2.471359e+00) (0.000000e+00 0.000000e+00 0.000000e+00))
7e-05         	((-1.182347e-01 8.885843e+00 9.554861e-01) (2.607481e-03 2.494586e-01 -3.876891e-03) (0.000000e+00 0.000000e+00 0.000000e+00)) ((1.148418e+00 -9.549200e+00 9.025129e+01) (-2.613582e-01 4.016175e-02 2.468513e+00) (0.000000e+00 0.000000e+00 0.000000e+00))
7.25e-05      	((-1.492262e-01 8.830439e+00 9.813846e-01) (2.454628e-03 2.488204e-01 -4.049370e-03) (0.000000e+00 0.000000e+00 0.000000e+00)) ((1.450239e+00 -9.839441e+00 9.000925e+01) (-2.626847e-01 4.182035e-02 2.463693e+00) (0.000000e+00 0.000000e+00 0.000000e+00))
7.5e-05       	((-1.777019e-01 8.764970e+00 1.004395e+00) (2.252818e-03 2.482604e-01 -4.282604e-03) (0.000000e+00 0.000000e+00 0.000000e+00)) ((1.735622e+00 -1.009989e+01 8.964061e+01) (-2.647353e-01 4.402703e-02 2.460129e+00) (0.000000e+00 0.000000e+00 0.000000e+00))
7.75e-05      	((-1.987026e-01 8.730120e+00 1.033704e+00) (2.030881e-03 2.475484e-01 -4.595289e-03) (0.000000e+00 0.000000e+00 0.000000e+00)) ((2.051990e+00 -1.041792e+01 8.950142e+01) (-2.674248e-01 4.699399e-02 2.455244e+00) (0.000000e+00 0.000000e+00 0.000000e+00))
8e-05         	((-2.108286e-01 8.732324e+00 1.069611e+00) (1.793563e-03 2.469572e-01 -4.895736e-03) (0.000000e+00 0.000000e+00 0.000000e+00)) ((2.395920e+00 -1.079533e+01 8.964170e+01) (-2.701226e-01 4.981150e-02 2.451719e+00) (0.000000e+00 0.000000e+00 0.000000e+00))
8.25e-05      	((-2.156031e-01 8.752827e+00 1.109581e+00) (1.570895e-03 2.464430e-01 -5.175205e-03) (0.000000e+00 0.000000e+00 0.000000e+00)) ((2.762181e+00 -1.120803e+01 8.988975e+01) (-2.726762e-01 5.241838e-02 2.448812e+00) (0.000000e+00 0.000000e+00 0.000000e+00))
8.5e-05       	((-2.157294e-01 8.771185e+00 1.150146e+00) (1.383957e-03 2.460543e-01 -5.425978e-03) (0.000000e+00 0.000000e+00 0.000000e+00)) ((3.137713e+00 -1.162350e+01 9.006921e+01) (-2.750679e-01 5.476036e-02 2.446788e+00) (0.000000e+00 0.000000e+00 0.000000e+00))
8.75e-05      	((-2.133327e-01 8.778038e+00 1.188194e+00) (1.235034e-03 2.458593e-01 -5.664759e-03) (0.000000e+00 0.000000e+00 0.000000e+00)) ((3.501160e+00 -1.201191e+01 9.010873e+01) (-2.775172e-01 5.701532e-02 2.446331e+00) (0.000000e+00 0.000000e+00 0.000000e+00))
9e-05         	((-2.094183e-01 8.774826e+00 1.221075e+00) (1.102953e-03 2.457053e-01 -5.905404e-03) (0.000000e+00 0.000000e+00 0.000000e+00)) ((3.823720e+00 -1.234661e+01 9.003338e+01) (-2.800114e-01 5.929555e-02 2.446119e+00) (0.000000e+00 0.000000e+00 0.000000e+00))
9.25e-05      	((-2.041378e-01 8.767965e+00 1.247709e+00) (9.844840e-04 2.455024e-01 -6.116747e-03) (0.000000e+00 0.000000e+00 0.000000e+00)) ((4.086893e+00 -1.261617e+01 8.990907e+01) (-2.821808e-01 6.128628e-02 2.445277e+00) (0.000000e+00 0.000000e+00 0.000000e+00))
9.5e-05       	((-1.967230e-01 8.763020e+00 1.265449e+00) (8.527320e-04 2.455787e-01 -6.350964e-03) (0.000000e+00 0.000000e+00 0.000000e+00)) ((4.258613e+00 -1.279250e+01 8.978404e+01) (-2.848221e-01 6.349274e-02 2.447398e+00) (0.000000e+00 0.000000e+00 0.000000e+00))
9.75e-05      	((-1.869609e-01 8.760156e+00 1.274630e+00) (7.345079e-04 2.456426e-01 -6.583099e-03) (0.000000e+00 0.000000e+00 0.000000e+00)) ((4.342148e+00 -1.287873e+01 8.965751e+01) (-2.874501e-01 6.569508e-02 2.449262e+00) (0.000000e+00 0.000000e+00 0.000000e+00))
0.0001        	((-1.733750e-01 8.758610e+00 1.275968e+00) (6.213195e-04 2.456734e-01 -6.832881e-03) (0.000000e+00 0.000000e+00 0.000000e+00)) ((4.345905e+00 -1.288033e+01 8.950703e+01) (-2.901833e-01 6.808046e-02 2.450766e+00) (0.000000e+00 0.000000e+00 0.000000e+00))
0.0001025     	((-1.562690e-01 8.758153e+00 1.271193e+00) (5.148224e-04 2.458506e-01 -7.063491e-03) (0.000000e+00 0.000000e+00 0.000000e+00)) ((4.287813e+00 -1.281555e+01 8.933276e+01) (-2.928826e-01 7.028440e-02 2.453676e+00) (0.000000e+00 0.000000e+00 0.000000e+00))
0.000105      	((-1.331066e-01 8.758496e+00 1.262516e+00) (4.379235e-04 2.458362e-01 -7.290235e-03) (0.000000e+00 0.000000e+00 0.000000e+00)) ((4.189773e+00 -1.270436e+01 8.910591e+01) (-2.953440e-01 7.247697e-02 2.454368e+00) (0.000000e+00 0.000000e+00 0.000000e+00))
0.0001075     	((-1.035221e-01 8.762434e+00 1.250655e+00) (3.812170e-04 2.460851e-01 -7.534256e-03) (0.000000e+00 0.000000e+00 0.000000e+00)) ((4.056461e+00 -1.255446e+01 8.885019e+01) (-2.982050e-01 7.487025e-02 2.457516e+00) (0.000000e+00 0.000000e+00 0.000000e+00))
0.00011       	((-6.686994e-02 8.769925e+00 1.236896e+00) (3.826921e-04 2.461903e-01 -7.749501e-03) (0.000000e+00 0.000000e+00 0.000000e+00)) ((3.901029e+00 -1.237893e+01 8.855826e+01) (-3.006466e-01 7.703339e-02 2.458629e+00) (0.000000e+00 0.000000e+00 0.000000e+00))
0.0001125     	((-2.328547e-02 8.779796e+00 1.222964e+00) (4.416344e-04 2.462314e-01 -7.973270e-03) (0.000000e+00 0.000000e+00 0.000000e+00)) ((3.741958e+00 -1.219579e+01 8.821946e+01) (-3.031066e-01 7.933580e-02 2.458518e+00) (0.000000e+00 0.000000e+00 0.000000e+00))
0.000115      	((2.541938e-02 8.791310e+00 1.209511e+00) (5.480582e-04 2.462625e-01 -8.176453e-03) (0.000000e+00 0.000000e+00 0.000000e+00)) ((3.586834e+00 -1.201365e+01 8.784454e+01) (-3.053683e-01 8.146750e-02 2.457815e+00) (0.000000e+00 0.000000e+00 0.000000e+00))
0.0001175     	((7.664922e-02 8.802858e+00 1.198262e+00) (7.125598e-04 2.462086e-01 -8.390591e-03) (0.000000e+00 0.000000e+00 0.000000e+00)) ((3.454166e+00 -1.185231e+01 8.744351e+01) (-3.076595e-01 8.376262e-02 2.455671e+00) (0.000000e+00 0.000000e+00 0.000000e+00))
0.00012       	((1.274911e-01 8.814515e+00 1.190525e+00) (9.239833e-04 2.459954e-01 -8.588168e-03) (0.000000e+00 0.000000e+00 0.000000e+00)) ((3.356735e+00 -1.172740e+01 8.704661e+01) (-3.096550e-01 8.592706e-02 2.451434e+00) (0.000000e+00 0.000000e+00 0.000000e+00))
0.0001225     	((1.749652e-01 8.826875e+00 1.186799e+00) (1.151999e-03 2.459048e-01 -8.787506e-03) (0.000000e+00 0.000000e+00 0.000000e+00)) ((3.299331e+00 -1.164654e+01 8.668999e+01) (-3.117705e-01 8.812245e-02 2.448266e+00) (0.000000e+00 0.000000e+00 0.000000e+00))
0.000125      	((2.174531e-01 8.838839e+00 1.187745e+00) (1.402300e-03 2.456517e-01 -8.947519e-03) (0.000000e+00 0.000000e+00 0.000000e+00)) ((3.289391e+00 -1.161775e+01 8.637902e+01) (-3.133497e-01 8.994387e-02 2.443230e+00) (0.000000e+00 0.000000e+00 0.000000e+00))
0.0001275     	((2.537046e-01 8.850236e+00 1.192728e+00) (1.653162e-03 2.453594e-01 -9.090103e-03) (0.000000e+00 0.000000e+00 0.000000e+00)) ((3.320793e+00 -1.163570e+01 8.612477e+01) (-3.147219e-01 9.158971e-02 2.437788e+00) (0.000000e+00 0.000000e+00 0.000000e+00))
0.00013       	((2.824265e-01 8.860711e+00 1.201194e+00) (1.894315e-03 2.450199e-01 -9.215602e-03) (0.000000e+00 0.000000e+00 0.000000e+00)) ((3.388309e+00 -1.169591e+01 8.593698e+01) (-3.158824e-01 9.305400e-02 2.431965e+00) (0.000000e+00 0.000000e+00 0.000000e+00))
0.0001325     	((3.026347e-01 8.869932e+00 1.212222e+00) (2.120738e-03 2.446561e-01 -9.322194e-03) (0.000000e+00 0.000000e+00 0.000000e+00)) ((3.483166e+00 -1.178992e+01 8.582250e+01) (-3.168281e-01 9.431677e-02 2.426046e+00) (0.000000e+00 0.000000e+00 0.000000e+00))
0.000135      	((3.144081e-01 8.877281e+00 1.225479e+00) (2.335605e-03 2.442280e-01 -9.431452e-03) (0.000000e+00 0.000000e+00 0.000000e+00)) ((3.602493e+00 -1.191420e+01 8.577457e+01) (-3.177261e-01 9.560223e-02 2.419596e+00) (0.000000e+00 0.000000e+00 0.000000e+00))
0.0001375     	((3.184548e-01 8.883587e+00 1.239777e+00) (2.517524e-03 2.438340e-01 -9.491480e-03) (0.000000e+00 0.000000e+00 0.000000e+00)) ((3.733855e+00 -1.205595e+01 8.579453e+01) (-3.181644e-01 9.636521e-02 2.413821e+00) (0.000000e+00 0.000000e+00 0.000000e+00))
0.00014       	((3.153443e-01 8.888229e+00 1.255152e+00) (2.659952e-03 2.434082e-01 -9.559978e-03) (0.000000e+00 0.000000e+00 0.000000e+00)) ((3.877622e+00 -1.221500e+01 8.587040e+01) (-3.186427e-01 9.717859e-02 2.408124e+00) (0.000000e+00 0.000000e+00 0.000000e+00))
0.0001425     	((3.060764e-01 8.891720e+00 1.270794e+00) (2.740861e-03 2.430298e-01 -9.577384e-03) (0.000000e+00 0.000000e+00 0.000000e+00)) ((4.025549e+00 -1.238204e+01 8.599740e+01) (-3.186431e-01 9.742050e-02 2.403523e+00) (0.000000e+00 0.000000e+00 0.000000e+00))
0.000145      	((2.919662e-01 8.893560e+00 1.286634e+00) (2.772834e-03 2.426676e-01 -9.562870e-03) (0.000000e+00 0.000000e+00 0.000000e+00)) ((4.177335e+00 -1.255505e+01 8.615719e+01) (-3.183202e-01 9.729541e-02 2.399578e+00) (0.000000e+00 0.000000e+00 0.000000e+00))
0.0001475     	((2.747635e-01 8.894028e+00 1.301253e+00) (2.757855e-03 2.423726e-01 -9.538957e-03) (0.000000e+00 0.000000e+00 0.000000e+00)) ((4.318518e+00 -1.271817e+01 8.633482e+01) (-3.179590e-01 9.702891e-02 2.396782e+00) (0.000000e+00 0.000000e+00 0.000000e+00))
0.00015       	((2.566010e-01 8.892473e+00 1.314441e+00) (2.726388e-03 2.420838e-01 -9.488861e-03) (0.000000e+00 0.000000e+00 0.000000e+00)) ((4.447472e+00 -1.286739e+01 8.650207e+01) (-3.173180e-01 9.649040e-02 2.394217e+00) (0.000000e+00 0.000000e+00 0.000000e+00))
0.0001525     	((2.390864e-01 8.889476e+00 1.325225e+00) (2.673564e-03 2.418570e-01 -9.399335e-03) (0.000000e+00 0.000000e+00 0.000000e+00)) ((4.554036e+00 -1.299157e+01 8.664837e+01) (-3.163315e-01 9.553806e-02 2.392488e+00) (0.000000e+00 0.000000e+00 0.000000e+00))
0.000155      	((2.230237e-01 8.885787e+00 1.333101e+00) (2.613492e-03 2.416346e-01 -9.341283e-03) (0.000000e+00 0.000000e+00 0.000000e+00)) ((4.632080e+00 -1.308523e+01 8.677285e+01) (-3.156518e-01 9.489738e-02 2.390878e+00) (0.000000e+00 0.000000e+00 0.000000e+00))
0.0001575     	((2.089597e-01 8.881716e+00 1.338358e+00) (2.549919e-03 2.414125e-01 -9.237859e-03) (0.000000e+00 0.000000e+00 0.000000e+00)) ((4.684311e+00 -1.315088e+01 8.687306e+01) (-3.145107e-01 9.380165e-02 2.389303e+00) (0.000000e+00 0.000000e+00 0.000000e+00))
0.00016       	((1.970714e-01 8.877426e+00 1.341290e+00) (2.486161e-03 2.411932e-01 -9.116074e-03) (0.000000e+00 0.000000e+00 0.000000e+00)) ((4.713615e+00 -1.319144e+01 8.694885e+01) (-3.131782e-01 9.252475e-02 2.387756e+00) (0.000000e+00 0.000000e+00 0.000000e+00))
0.0001625     	((1.874610e-01 8.873891e+00 1.341542e+00) (2.418366e-03 2.410206e-01 -9.023093e-03) (0.000000e+00 0.000000e+00 0.000000e+00)) ((4.715632e+00 -1.320331e+01 8.700892e+01) (-3.121739e-01 9.153025e-02 2.386718e+00) (0.000000e+00 0.000000e+00 0.000000e+00))
0.000165      	((1.805389e-01 8.870652e+00 1.340311e+00) (2.362672e-03 2.408214e-01 -8.918507e-03) (0.000000e+00 0.000000e+00 0.000000e+00)) ((4.702802e+00 -1.319802e+01 8.704457e+01) (-3.110150e-01 9.043416e-02 2.385290e+00) (0.000000e+00 0.000000e+00 0.000000e+00))
0.0001675     	((1.763961e-01 8.868017e+00 1.337864e+00) (2.309782e-03 2.406628e-01 -8.785173e-03) (0.000000e+00 0.000000e+00 0.000000e+00)) ((4.677750e+00 -1.317803e+01 8.705810e+01) (-3.096100e-01 8.904936e-02 2.384238e+00) (0.000000e+00 0.000000e+00 0.000000e+00))
0.00017       	((1.747257e-01 8.866026e+00 1.334658e+00) (2.267260e-03 2.405063e-01 -8.705139e-03) (0.000000e+00 0.000000e+00 0.000000e+00)) ((4.644655e+00 -1.314821e+01 8.705303e+01) (-3.087330e-01 8.820827e-02 2.383102e+00) (0.000000e+00 0.000000e+00 0.000000e+00))
0.0001725     	((1.752303e-01 8.864580e+00 1.331477e+00) (2.234752e-03 2.403426e-01 -8.600207e-03) (0.000000e+00 0.000000e+00 0.000000e+00)) ((4.611500e+00 -1.311657e+01 8.703155e+01) (-3.076008e-01 8.712785e-02 2.381791e+00) (0.000000e+00 0.000000e+00 0.000000e+00))
0.000175      	((1.772173e-01 8.863649e+00 1.328544e+00) (2.213808e-03 2.402102e-01 -8.506339e-03) (0.000000e+00 0.000000e+00 0.000000e+00)) ((4.580610e+00 -1.308594e+01 8.700044e+01) (-3.066041e-01 8.616947e-02 2.380675e+00) (0.000000e+00 0.000000e+00 0.000000e+00))
0.0001775     	((1.799673e-01 8.863107e+00 1.325893e+00) (2.200812e-03 2.400579e-01 -8.461830e-03) (0.000000e+00 0.000000e+00 0.000000e+00)) ((4.552221e+00 -1.305748e+01 8.696576e+01) (-3.060813e-01 8.571371e-02 2.379278e+00) (0.000000e+00 0.000000e+00 0.000000e+00))
0.00018       	((1.830565e-01 8.862771e+00 1.323298e+00) (2.197664e-03 2.399841e-01 -8.397186e-03) (0.000000e+00 0.000000e+00 0.000000e+00)) ((4.524638e+00 -1.302925e+01 8.693003e+01) (-3.054261e-01 8.506818e-02 2.378575e+00) (0.000000e+00 0.000000e+00 0.000000e+00))
0.0001825     	((1.863404e-01 8.861639e+00 1.321316e+00) (2.202948e-03 2.397924e-01 -8.362315e-03) (0.000000e+00 0.000000e+00 0.000000e+00)) ((4.503908e+00 -1.300707e+01 8.688457e+01) (-3.049637e-01 8.472689e-02 2.376594e+00) (0.000000e+00 0.000000e+00 0.000000e+00))
0.000185      	((1.896175e-01 8.860394e+00 1.319265e+00) (2.206919e-03 2.397740e-01 -8.322136e-03) (0.000000e+00 0.000000e+00 0.000000e+00)) ((4.482934e+00 -1.298416e+01 8.683828e+01) (-3.045949e-01 8.433533e-02 2.376377e+00) (0.000000e+00 0.000000e+00 0.000000e+00))
0.0001875     	((1.930344e-01 8.858778e+00 1.317160e+00) (2.214290e-03 2.396762e-01 -8.289485e-03) (0.000000e+00 0.000000e+00 0.000000e+00)) ((4.461900e+00 -1.296049e+01 8.678704e+01) (-3.042284e-01 8.402211e-02 2.375323e+00) (0.000000e+00 0.000000e+00 0.000000e+00))
0.00019       	((1.964364e-01 8.857262e+00 1.315118e+00) (2.222298e-03 2.395297e-01 -8.274981e-03) (0.000000e+00 0.000000e+00 0.000000e+00)) ((4.441434e+00 -1.293735e+01 8.673703e+01) (-3.039913e-01 8.389120e-02 2.373771e+00) (0.000000e+00 0.000000e+00 0.000000e+00))
0.0001925     	((1.996176e-01 8.856309e+00 1.312629e+00) (2.235711e-03 2.394914e-01 -8.240508e-03) (0.000000e+00 0.000000e+00 0.000000e+00)) ((4.416275e+00 -1.290974e+01 8.669501e+01) (-3.036448e-01 8.356832e-02 2.373259e+00) (0.000000e+00 0.000000e+00 0.000000e+00))
0.000195      	((2.024633e-01 8.854822e+00 1.310290e+00) (2.252808e-03 2.393631e-01 -8.210700e-03) (0.000000e+00 0.000000e+00 0.000000e+00)) ((4.393090e+00 -1.288391e+01 8.665104e+01) (-3.032589e-01 8.329709e-02 2.371800e+00) (0.000000e+00 0.000000e+00 0.000000e+00))
0.0001975     	((2.046327e-01 8.853640e+00 1.307279e+00) (2.265669e-03 2.393369e-01 -8.188570e-03) (0.000000e+00 0.000000e+00 0.000000e+00)) ((4.363264e+00 -1.285191e+01 8.661704e+01) (-3.030381e-01 8.309943e-02 2.371413e+00) (0.000000e+00 0.000000e+00 0.000000e+00))
0.0002        	((2.057889e-01 8.852036e+00 1.304151e+00) (2.284971e-03 2.392664e-01 -8.179655e-03) (0.000000e+00 0.000000e+00 0.000000e+00)) ((4.332768e+00 -1.281977e+01 8.658907e+01) (-3.029003e-01 8.304294e-02 2.370515e+00) (0.000000e+00 0.000000e+00 0.000000e+00))
0.0002025     	((2.058474e-01 8.850312e+00 1.300606e+00) (2.305715e-03 2.392269e-01 -8.141849e-03) (0.000000e+00 0.000000e+00 0.000000e+00)) ((4.298571e+00 -1.278451e+01 8.657109e+01) (-3.025011e-01 8.269913e-02 2.369911e+00) (0.000000e+00 0.000000e+00 0.000000e+00))
0.000205      	((2.046912e-01 8.848159e+00 1.297097e+00) (2.326439e-03 2.391856e-01 -8.118123e-03) (0.000000e+00 0.000000e+00 0.000000e+00)) ((4.265337e+00 -1.275084e+01 8.656116e+01) (-3.022309e-01 8.249754e-02 2.369288e+00) (0.000000e+00 0.000000e+00 0.000000e+00))
0.0002075     	((2.027487e-01 8.846203e+00 1.293868e+00) (2.345085e-03 2.391345e-01 -8.085707e-03) (0.000000e+00 0.000000e+00 0.000000e+00)) ((4.234842e+00 -1.272078e+01 8.656121e+01) (-3.018647e-01 8.220618e-02 2.368584e+00) (0.000000e+00 0.000000e+00 0.000000e+00))
0.00021       	((1.998586e-01 8.844342e+00 1.290859e+00) (2.360691e-03 2.390882e-01 -8.061512e-03) (0.000000e+00 0.000000e+00 0.000000e+00)) ((4.206647e+00 -1.269386e+01 8.657186e+01) (-3.015773e-01 8.199416e-02 2.367959e+00) (0.000000e+00 0.000000e+00 0.000000e+00))
0.0002125     	((1.960711e-01 8.842288e+00 1.288156e+00) (2.378951e-03 2.390522e-01 -8.030259e-03) (0.000000e+00 0.000000e+00 0.000000e+00)) ((4.181931e+00 -1.267093e+01 8.658977e+01) (-3.012247e-01 8.171316e-02 2.367409e+00) (0.000000e+00 0.000000e+00 0.000000e+00))
0.000215      	((1.914237e-01 8.839926e+00 1.285922e+00) (2.395694e-03 2.390091e-01 -8.004404e-03) (0.000000e+00 0.000000e+00 0.000000e+00)) ((4.162427e+00 -1.265359e+01 8.661337e+01) (-3.009131e-01 8.148527e-02 2.366803e+00) (0.000000e+00 0.000000e+00 0.000000e+00))
0.0002175     	((1.861304e-01 8.837290e+00 1.284032e+00) (2.409568e-03 2.389783e-01 -7.981380e-03) (0.000000e+00 0.000000e+00 0.000000e+00)) ((4.146881e+00 -1.264035e+01 8.664086e+01) (-3.006414e-01 8.128152e-02 2.366348e+00) (0.000000e+00 0.000000e+00 0.000000e+00))
0.00022       	((1.802681e-01 8.834016e+00 1.282850e+00) (2.420947e-03 2.388853e-01 -7.978022e-03) (0.000000e+00 0.000000e+00 0.000000e+00)) ((4.139073e+00 -1.263485e+01 8.666776e+01) (-3.005018e-01 8.127132e-02 2.365292e+00) (0.000000e+00 0.000000e+00 0.000000e+00))
0.0002225     	((1.738013e-01 8.830975e+00 1.281410e+00) (2.411362e-03 2.389389e-01 -7.945711e-03) (0.000000e+00 0.000000e+00 0.000000e+00)) ((4.128805e+00 -1.262736e+01 8.670320e+01) (-3.002199e-01 8.094557e-02 2.365930e+00) (0.000000e+00 0.000000e+00 0.000000e+00))
0.000225      	((1.671623e-01 8.827116e+00 1.280283e+00) (2.408566e-03 2.389228e-01 -7.908871e-03) (0.000000e+00 0.000000e+00 0.000000e+00)) ((4.122429e+00 -1.262327e+01 8.673217e+01) (-2.998226e-01 8.058066e-02 2.365794e+00) (0.000000e+00 0.000000e+00 0.000000e+00))
0.0002275     	((1.606324e-01 8.823123e+00 1.279265e+00) (2.399454e-03 2.388811e-01 -7.890037e-03) (0.000000e+00 0.000000e+00 0.000000e+00)) ((4.117250e+00 -1.262025e+01 8.675869e+01) (-2.995760e-01 8.038816e-02 2.365464e+00) (0.000000e+00 0.000000e+00 0.000000e+00))
0.00023       	((1.543380e-01 8.819868e+00 1.277811e+00) (2.376558e-03 2.389078e-01 -7.870355e-03) (0.000000e+00 0.000000e+00 0.000000e+00)) ((4.107159e+00 -1.261267e+01 8.679021e+01) (-2.993830e-01 8.017123e-02 2.365963e+00) (0.000000e+00 0.000000e+00 0.000000e+00))
0.0002325     	((1.487000e-01 8.816409e+00 1.276811e+00) (2.354406e-03 2.388525e-01 -7.849392e-03) (0.000000e+00 0.000000e+00 0.000000e+00)) ((4.101582e+00 -1.260910e+01 8.681297e+01) (-2.990987e-01 7.993954e-02 2.365631e+00) (0.000000e+00 0.000000e+00 0.000000e+00))
0.000235      	((1.436312e-01 8.813388e+00 1.275445e+00) (2.308410e-03 2.388863e-01 -7.833575e-03) (0.000000e+00 0.000000e+00 0.000000e+00)) ((4.092110e+00 -1.260136e+01 8.683433e+01) (-2.989499e-01 7.973089e-02 2.366435e+00) (0.000000e+00 0.000000e+00 0.000000e+00))
0.0002375     	((1.392901e-01 8.809656e+00 1.274478e+00) (2.277734e-03 2.388316e-01 -7.803651e-03) (0.000000e+00 0.000000e+00 0.000000e+00)) ((4.087124e+00 -1.259704e+01 8.684112e+01) (-2.985717e-01 7.939486e-02 2.366195e+00) (0.000000e+00 0.000000e+00 0.000000e+00))
0.00024       	((1.355448e-01 8.805954e+00 1.273032e+00) (2.232688e-03 2.388687e-01 -7.771061e-03) (0.000000e+00 0.000000e+00 0.000000e+00)) ((4.077474e+00 -1.258740e+01 8.684216e+01) (-2.982497e-01 7.901579e-02 2.367025e+00) (0.000000e+00 0.000000e+00 0.000000e+00))
0.0002425     	((1.324525e-01 8.801627e+00 1.271684e+00) (2.196754e-03 2.388074e-01 -7.742401e-03) (0.000000e+00 0.000000e+00 0.000000e+00)) ((4.069119e+00 -1.257823e+01 8.683023e+01) (-2.978812e-01 7.868072e-02 2.366771e+00) (0.000000e+00 0.000000e+00 0.000000e+00))
0.000245      	((1.298897e-01 8.797567e+00 1.269712e+00) (2.146640e-03 2.388709e-01 -7.718986e-03) (0.000000e+00 0.000000e+00 0.000000e+00)) ((4.054284e+00 -1.256233e+01 8.681555e+01) (-2.976755e-01 7.838448e-02 2.367920e+00) (0.000000e+00 0.000000e+00 0.000000e+00))
0.0002475     	((1.283416e-01 8.793208e+00 1.267941e+00) (2.118613e-03 2.388244e-01 -7.684467e-03) (0.000000e+00 0.000000e+00 0.000000e+00)) ((4.041525e+00 -1.254755e+01 8.678751e+01) (-2.972596e-01 7.799652e-02 2.367737e+00) (0.000000e+00 0.000000e+00 0.000000e+00))
0.00025       	((1.277133e-01 8.789230e+00 1.265553e+00) (2.081692e-03 2.388589e-01 -7.659607e-03) (0.000000e+00 0.000000e+00 0.000000e+00)) ((4.022265e+00 -1.252564e+01 8.675395e+01) (-2.970144e-01 7.769439e-02 2.368460e+00) (0.000000e+00 0.000000e+00 0.000000e+00))
0.0002525     	((1.279609e-01 8.785106e+00 1.263235e+00) (2.051675e-03 2.388503e-01 -7.641762e-03) (0.000000e+00 0.000000e+00 0.000000e+00)) ((4.003682e+00 -1.250357e+01 8.671003e+01) (-2.967963e-01 7.747014e-02 2.368682e+00) (0.000000e+00 0.000000e+00 0.000000e+00))
0.000255      	((1.289969e-01 8.781216e+00 1.261002e+00) (2.014232e-03 2.388467e-01 -7.617419e-03) (0.000000e+00 0.000000e+00 0.000000e+00)) ((3.985677e+00 -1.248147e+01 8.666047e+01) (-2.965275e-01 7.717069e-02 2.369027e+00) (0.000000e+00 0.000000e+00 0.000000e+00))
0.0002575     	((1.307855e-01 8.777267e+00 1.259399e+00) (1.990770e-03 2.388117e-01 -7.595812e-03) (0.000000e+00 0.000000e+00 0.000000e+00)) ((3.973893e+00 -1.246485e+01 8.660271e+01) (-2.962515e-01 7.691386e-02 2.368915e+00) (0.000000e+00 0.000000e+00 0.000000e+00))
0.00026       	((1.330194e-01 8.774084e+00 1.257751e+00) (1.960256e-03 2.388325e-01 -7.569334e-03) (0.000000e+00 0.000000e+00 0.000000e+00)) ((3.961057e+00 -1.244718e+01 8.654817e+01) (-2.959836e-01 7.660132e-02 2.369437e+00) (0.000000e+00 0.000000e+00 0.000000e+00))
0.0002625     	((1.357678e-01 8.771102e+00 1.256614e+00) (1.938037e-03 2.388133e-01 -7.563101e-03) (0.000000e+00 0.000000e+00 0.000000e+00)) ((3.952943e+00 -1.243399e+01 8.649044e+01) (-2.958797e-01 7.650110e-02 2.369475e+00) (0.000000e+00 0.000000e+00 0.000000e+00))
0.000265      	((1.388666e-01 8.768793e+00 1.255805e+00) (1.915902e-03 2.388133e-01 -7.537163e-03) (0.000000e+00 0.000000e+00 0.000000e+00)) ((3.947483e+00 -1.242353e+01 8.643597e+01) (-2.956017e-01 7.620383e-02 2.369702e+00) (0.000000e+00 0.000000e+00 0.000000e+00))
0.0002675     	((1.423996e-01 8.767080e+00 1.255682e+00) (1.903062e-03 2.387932e-01 -7.537108e-03) (0.000000e+00 0.000000e+00 0.000000e+00)) ((3.948198e+00 -1.241933e+01 8.638306e+01) (-2.955599e-01 7.617884e-02 2.369635e+00) (0.000000e+00 0.000000e+00 0.000000e+00))
0.00027       	((1.463635e-01 8.766171e+00 1.255961e+00) (1.886151e-03 2.387970e-01 -7.533372e-03) (0.000000e+00 0.000000e+00 0.000000e+00)) ((3.952252e+00 -1.241844e+01 8.633388e+01) (-2.955107e-01 7.611344e-02 2.369849e+00) (0.000000e+00 0.000000e+00 0.000000e+00))
0.0002725     	((1.507444e-01 8.765388e+00 1.257075e+00) (1.883146e-03 2.387803e-01 -7.532414e-03) (0.000000e+00 0.000000e+00 0.000000e+00)) ((3.964546e+00 -1.242527e+01 8.628176e+01) (-2.954650e-01 7.609279e-02 2.369716e+00) (0.000000e+00 0.000000e+00 0.000000e+00))
0.000275      	((1.551681e-01 8.765018e+00 1.258738e+00) (1.878782e-03 2.387713e-01 -7.526769e-03) (0.000000e+00 0.000000e+00 0.000000e+00)) ((3.982018e+00 -1.243736e+01 8.623334e+01) (-2.953847e-01 7.602494e-02 2.369673e+00) (0.000000e+00 0.000000e+00 0.000000e+00))
0.0002775     	((1.596052e-01 8.764885e+00 1.261222e+00) (1.887884e-03 2.387061e-01 -7.537375e-03) (0.000000e+00 0.000000e+00 0.000000e+00)) ((4.007409e+00 -1.245750e+01 8.618713e+01) (-2.954117e-01 7.613568e-02 2.368930e+00) (0.000000e+00 0.000000e+00 0.000000e+00))