# Forces      
# CofR        : (0.000000e+00 0.000000e+00 0.000000e+00)
# Time        forces(pressure viscous porous)	moments(pressure viscous porous)
2.5e-06       	((8.820432e-01 2.740904e+01 7.211043e-01) (-5.912980e-03 6.131756e-01 9.589561e-03) (0.000000e+00 0.000000e+00 0.000000e+00)) ((-1.637721e+01 -6.015519e+00 2.652450e+02) (-4.946968e-01 -1.023499e-01 6.177758e+00) (0.000000e+00 0.000000e+00 0.000000e+00))
5e-06         	((-1.488644e+00 1.197999e+02 1.594454e+00) (1.330463e-03 8.591931e-01 3.159379e-04) (0.000000e+00 0.000000e+00 0.000000e+00)) ((-8.461866e+01 -1.750022e+01 1.212412e+03) (-7.387564e-01 -3.515334e-03 8.563722e+00) (0.000000e+00 0.000000e+00 0.000000e+00))
7.5e-06       	((-6.647064e+00 2.354566e+02 5.801498e+00) (3.105706e-03 9.549599e-01 -1.596817e-02) (0.000000e+00 0.000000e+00 0.000000e+00)) ((-1.480188e+02 -6.551328e+01 2.420418e+03) (-9.204050e-01 1.599183e-01 9.502583e+00) (0.000000e+00 0.000000e+00 0.000000e+00))
1e-05         	((1.561846e-01 1.545187e+02 -4.769974e+00) (6.015955e-03 8.488351e-01 -5.188648e-02) (0.000000e+00 0.000000e+00 0.000000e+00)) ((-1.786651e+02 4.717852e+01 1.542953e+03) (-1.185283e+00 5.321056e-01 8.412774e+00) (0.000000e+00 0.000000e+00 0.000000e+00))
1.25e-05      	((5.275697e+00 5.272909e+01 -1.119178e+01) (9.772407e-03 8.722950e-01 1.547172e-02) (0.000000e+00 0.000000e+00 0.000000e+00)) ((-1.481470e+02 1.175629e+02 4.741470e+02) (-4.989701e-01 -1.294946e-01 8.612118e+00) (0.000000e+00 0.000000e+00 0.000000e+00))
1.5e-05       	((2.485112e+00 1.676480e+01 -5.820959e+00) (2.082830e-02 8.133338e-01 2.133338e-02) (0.000000e+00 0.000000e+00 0.000000e+00)) ((-6.295126e+01 6.165406e+01 1.428396e+02) (-3.972737e-01 -1.852515e-01 7.915141e+00) (0.000000e+00 0.000000e+00 0.000000e+00))
1.75e-05      	((-2.404338e+00 2.271042e+01 1.998237e+00) (1.078248e-02 7.309458e-01 1.361655e-02) (0.000000e+00 0.000000e+00 0.000000e+00)) ((5.723796e+00 -2.082018e+01 2.515597e+02) (-4.309382e-01 -1.221746e-01 7.193172e+00) (0.000000e+00 0.000000e+00 0.000000e+00))
2e-05         	((-4.110057e+00 3.346919e+01 5.333485e+00) (1.150389e-02 6.711169e-01 3.084219e-03) (0.000000e+00 0.000000e+00 0.000000e+00)) ((2.552400e+01 -5.540309e+01 3.763446e+02) (-5.104191e-01 -2.370144e-02 6.588103e+00) (0.000000e+00 0.000000e+00 0.000000e+00))
2.25e-05      	((-2.884471e+00 3.452052e+01 3.663794e+00) (1.462312e-02 5.773583e-01 -2.173313e-02) (0.000000e+00 0.000000e+00 0.000000e+00)) ((6.915570e+00 -3.769012e+01 3.745366e+02) (-7.204488e-01 2.219104e-01 5.621155e+00) (0.000000e+00 0.000000e+00 0.000000e+00))
2.5e-05       	((-1.176249e+00 2.543696e+01 -2.826153e-01) (6.444879e-03 6.098878e-01 -1.948697e-02) (0.000000e+00 0.000000e+00 0.000000e+00)) ((-2.416043e+01 2.832335e+00 2.666125e+02) (-6.971058e-01 1.953047e-01 6.027162e+00) (0.000000e+00 0.000000e+00 0.000000e+00))
2.75e-05      	((-5.164184e-01 1.769374e+01 -2.421209e+00) (-3.593376e-04 6.390467e-01 -1.085779e-02) (0.000000e+00 0.000000e+00 0.000000e+00)) ((-3.771660e+01 2.432436e+01 1.825987e+02) (-6.042086e-01 1.063174e-01 6.385961e+00) (0.000000e+00 0.000000e+00 0.000000e+00))
3e-05         	((-8.746952e-01 1.683953e+01 -1.658955e+00) (-1.755004e-03 6.285657e-01 -8.513678e-03) (0.000000e+00 0.000000e+00 0.000000e+00)) ((-2.883919e+01 1.623484e+01 1.776289e+02) (-5.640432e-01 8.215267e-02 6.295451e+00) (0.000000e+00 0.000000e+00 0.000000e+00))
3.25e-05      	((-1.359747e+00 2.024257e+01 5.775539e-01) (-1.592099e-03 6.300872e-01 -4.378125e-03) (0.000000e+00 0.000000e+00 0.000000e+00)) ((-9.814096e+00 -6.405244e+00 2.164543e+02) (-5.185655e-01 4.091271e-02 6.308848e+00) (0.000000e+00 0.000000e+00 0.000000e+00))
3.5e-05       	((-1.440502e+00 2.338610e+01 2.156743e+00) (-2.184077e-03 6.219682e-01 -9.458344e-04) (0.000000e+00 0.000000e+00 0.000000e+00)) ((2.799447e+00 -2.201027e+01 2.486151e+02) (-4.825056e-01 6.835400e-03 6.233916e+00) (0.000000e+00 0.000000e+00 0.000000e+00))
3.75e-05      	((-1.288909e+00 2.334353e+01 2.156967e+00) (-1.932142e-03 6.115875e-01 1.700828e-04) (0.000000e+00 0.000000e+00 0.000000e+00)) ((2.597053e+00 -2.166642e+01 2.466372e+02) (-4.687754e-01 -3.896066e-03 6.127906e+00) (0.000000e+00 0.000000e+00 0.000000e+00))
4e-05         	((-1.203124e+00 2.116969e+01 1.239326e+00) (-4.980016e-04 5.971371e-01 -2.446275e-03) (0.000000e+00 0.000000e+00 0.000000e+00)) ((-4.662389e+00 -1.232221e+01 2.240500e+02) (-4.881599e-01 2.280920e-02 5.969180e+00) (0.000000e+00 0.000000e+00 0.000000e+00))
4.25e-05      	((-1.270105e+00 1.922495e+01 5.034549e-01) (-1.260967e-03 5.877506e-01 -4.688140e-03) (0.000000e+00 0.000000e+00 0.000000e+00)) ((-1.026726e+01 -5.041407e+00 2.052824e+02) (-5.033173e-01 4.482631e-02 5.883038e+00) (0.000000e+00 0.000000e+00 0.000000e+00))
4.5e-05       	((-1.406804e+00 1.880829e+01 4.575349e-01) (-2.154659e-03 5.834917e-01 -6.100461e-03) (0.000000e+00 0.000000e+00 0.000000e+00)) ((-1.045058e+01 -4.754447e+00 2.024610e+02) (-5.121261e-01 5.835327e-02 5.849345e+00) (0.000000e+00 0.000000e+00 0.000000e+00))
4.75e-05      	((-1.480758e+00 1.969733e+01 8.931755e-01) (-3.139847e-03 5.819041e-01 -6.132200e-03) (0.000000e+00 0.000000e+00 0.000000e+00)) ((-7.024702e+00 -9.209133e+00 2.120293e+02) (-5.099573e-01 5.812464e-02 5.843359e+00) (0.000000e+00 0.000000e+00 0.000000e+00))
5e-05         	((-1.445730e+00 2.069951e+01 1.320182e+00) (-3.299877e-03 5.814926e-01 -5.770540e-03) (0.000000e+00 0.000000e+00 0.000000e+00)) ((-3.790857e+00 -1.345217e+01 2.216311e+02) (-5.061039e-01 5.452055e-02 5.840844e+00) (0.000000e+00 0.000000e+00 0.000000e+00))
5.25e-05      	((-1.305427e+00 2.102880e+01 1.496608e+00) (-3.184025e-03 5.807861e-01 -5.707272e-03) (0.000000e+00 0.000000e+00 0.000000e+00)) ((-2.401174e+00 -1.509716e+01 2.234615e+02) (-5.058460e-01 5.416918e-02 5.832660e+00) (0.000000e+00 0.000000e+00 0.000000e+00))
5.5e-05       	((-1.144579e+00 2.066466e+01 1.470752e+00) (-2.987428e-03 5.787414e-01 -5.703804e-03) (0.000000e+00 0.000000e+00 0.000000e+00)) ((-2.355969e+00 -1.471362e+01 2.181744e+02) (-5.053899e-01 5.449186e-02 5.810330e+00) (0.000000e+00 0.000000e+00 0.000000e+00))
5.75e-05      	((-9.935313e-01 2.010132e+01 1.381587e+00) (-2.713500e-03 5.762407e-01 -6.242992e-03) (0.000000e+00 0.000000e+00 0.000000e+00)) ((-2.740504e+00 -1.372332e+01 2.110054e+02) (-5.096767e-01 6.026430e-02 5.782640e+00) (0.000000e+00 0.000000e+00 0.000000e+00))
6e-05         	((-8.779299e-01 1.973685e+01 1.355181e+00) (-2.435867e-03 5.733976e-01 -6.983752e-03) (0.000000e+00 0.000000e+00 0.000000e+00)) ((-2.683826e+00 -1.339833e+01 2.061827e+02) (-5.154602e-01 6.797161e-02 5.751492e+00) (0.000000e+00 0.000000e+00 0.000000e+00))
6.25e-05      	((-8.159900e-01 1.965575e+01 1.406039e+00) (-2.277673e-03 5.709537e-01 -7.796063e-03) (0.000000e+00 0.000000e+00 0.000000e+00)) ((-2.128688e+00 -1.388574e+01 2.047349e+02) (-5.221413e-01 7.625719e-02 5.725571e+00) (0.000000e+00 0.000000e+00 0.000000e+00))
6.5e-05       	((-7.855099e-01 1.978958e+01 1.497312e+00) (-2.193084e-03 5.689999e-01 -8.552432e-03) (0.000000e+00 0.000000e+00 0.000000e+00)) ((-1.380101e+00 -1.479429e+01 2.057534e+02) (-5.287175e-01 8.389014e-02 5.705303e+00) (0.000000e+00 0.000000e+00 0.000000e+00))
6.75e-05      	((-7.676786e-01 1.997649e+01 1.592669e+00) (-2.157065e-03 5.675443e-01 -9.199960e-03) (0.000000e+00 0.000000e+00 0.000000e+00)) ((-6.418144e-01 -1.574708e+01 2.074316e+02) (-5.346903e-01 9.041853e-02 5.690515e+00) (0.000000e+00 0.000000e+00 0.000000e+00))
7e-05         	((-7.545683e-01 2.009273e+01 1.679071e+00) (-2.095336e-03 5.663083e-01 -9.773327e-03) (0.000000e+00 0.000000e+00 0.000000e+00)) ((7.947535e-02 -1.661029e+01 2.084556e+02) (-5.401256e-01 9.627413e-02 5.677659e+00) (0.000000e+00 0.000000e+00 0.000000e+00))
7.25e-05      	((-7.506866e-01 2.010759e+01 1.759505e+00) (-2.034464e-03 5.652157e-01 -1.030242e-02) (0.000000e+00 0.000000e+00 0.000000e+00)) ((8.435899e-01 -1.741738e+01 2.085661e+02) (-5.452864e-01 1.017102e-01 5.666224e+00) (0.000000e+00 0.000000e+00 0.000000e+00))
7.5e-05       	((-7.601880e-01 2.006098e+01 1.839963e+00) (-1.994569e-03 5.640441e-01 -1.080949e-02) (0.000000e+00 0.000000e+00 0.000000e+00)) ((1.669865e+00 -1.823061e+01 2.082047e+02) (-5.501650e-01 1.069292e-01 5.654210e+00) (0.000000e+00 0.000000e+00 0.000000e+00))
7.75e-05      	((-7.848357e-01 2.001020e+01 1.921677e+00) (-1.978442e-03 5.628139e-01 -1.131115e-02) (0.000000e+00 0.000000e+00 0.000000e+00)) ((2.512910e+00 -1.906377e+01 2.079599e+02) (-5.549634e-01 1.120786e-01 5.641863e+00) (0.000000e+00 0.000000e+00 0.000000e+00))
8e-05         	((-8.203294e-01 1.999003e+01 2.003789e+00) (-2.000787e-03 5.616043e-01 -1.179700e-02) (0.000000e+00 0.000000e+00 0.000000e+00)) ((3.329769e+00 -1.990706e+01 2.081330e+02) (-5.596607e-01 1.170392e-01 5.630118e+00) (0.000000e+00 0.000000e+00 0.000000e+00))
8.25e-05      	((-8.610450e-01 2.000513e+01 2.085589e+00) (-2.067669e-03 5.605124e-01 -1.222454e-02) (0.000000e+00 0.000000e+00 0.000000e+00)) ((4.110378e+00 -2.075197e+01 2.087106e+02) (-5.638989e-01 1.213726e-01 5.620003e+00) (0.000000e+00 0.000000e+00 0.000000e+00))
8.5e-05       	((-9.004622e-01 2.004090e+01 2.166798e+00) (-2.145017e-03 5.595835e-01 -1.258204e-02) (0.000000e+00 0.000000e+00 0.000000e+00)) ((4.868014e+00 -2.159379e+01 2.094786e+02) (-5.675627e-01 1.249845e-01 5.611610e+00) (0.000000e+00 0.000000e+00 0.000000e+00))
8.75e-05      	((-9.327353e-01 2.007958e+01 2.246478e+00) (-2.176390e-03 5.587956e-01 -1.286517e-02) (0.000000e+00 0.000000e+00 0.000000e+00)) ((5.611152e+00 -2.242108e+01 2.101986e+02) (-5.705619e-01 1.278734e-01 5.604143e+00) (0.000000e+00 0.000000e+00 0.000000e+00))
9e-05         	((-9.547476e-01 2.010984e+01 2.322035e+00) (-2.149760e-03 5.581349e-01 -1.306765e-02) (0.000000e+00 0.000000e+00 0.000000e+00)) ((6.324046e+00 -2.320661e+01 2.107245e+02) (-5.727841e-01 1.299773e-01 5.597333e+00) (0.000000e+00 0.000000e+00 0.000000e+00))
9.25e-05      	((-9.651393e-01 2.012776e+01 2.389750e+00) (-2.084656e-03 5.575834e-01 -1.320262e-02) (0.000000e+00 0.000000e+00 0.000000e+00)) ((6.971669e+00 -2.391191e+01 2.110030e+02) (-5.743394e-01 1.314083e-01 5.591198e+00) (0.000000e+00 0.000000e+00 0.000000e+00))
9.5e-05       	((-9.644291e-01 2.013373e+01 2.446114e+00) (-1.993923e-03 5.571053e-01 -1.327953e-02) (0.000000e+00 0.000000e+00 0.000000e+00)) ((7.517189e+00 -2.450103e+01 2.110438e+02) (-5.752914e-01 1.322531e-01 5.585510e+00) (0.000000e+00 0.000000e+00 0.000000e+00))
9.75e-05      	((-9.557021e-01 2.013033e+01 2.488974e+00) (-1.891045e-03 5.566772e-01 -1.329542e-02) (0.000000e+00 0.000000e+00 0.000000e+00)) ((7.936083e+00 -2.495254e+01 2.109058e+02) (-5.756012e-01 1.324725e-01 5.580183e+00) (0.000000e+00 0.000000e+00 0.000000e+00))
0.0001        	((-9.418537e-01 2.012053e+01 2.517682e+00) (-1.791438e-03 5.562789e-01 -1.326572e-02) (0.000000e+00 0.000000e+00 0.000000e+00)) ((8.219238e+00 -2.525963e+01 2.106498e+02) (-5.754168e-01 1.322171e-01 5.575171e+00) (0.000000e+00 0.000000e+00 0.000000e+00))
0.0001025     	((-9.253512e-01 2.010712e+01 2.533268e+00) (-1.697178e-03 5.559255e-01 -1.320878e-02) (0.000000e+00 0.000000e+00 0.000000e+00)) ((8.374832e+00 -2.543188e+01 2.103313e+02) (-5.749473e-01 1.316754e-01 5.570654e+00) (0.000000e+00 0.000000e+00 0.000000e+00))
0.000105      	((-9.082077e-01 2.009294e+01 2.537628e+00) (-1.624833e-03 5.555909e-01 -1.312965e-02) (0.000000e+00 0.000000e+00 0.000000e+00)) ((8.419544e+00 -2.548762e+01 2.100010e+02) (-5.742283e-01 1.308906e-01 5.566543e+00) (0.000000e+00 0.000000e+00 0.000000e+00))
0.0001075     	((-8.924203e-01 2.007880e+01 2.534925e+00) (-1.580716e-03 5.551545e-01 -1.293584e-02) (0.000000e+00 0.000000e+00 0.000000e+00)) ((8.394650e+00 -2.546852e+01 2.096884e+02) (-5.722337e-01 1.289395e-01 5.561702e+00) (0.000000e+00 0.000000e+00 0.000000e+00))
0.00011       	((-8.786292e-01 2.006335e+01 2.526856e+00) (-1.530842e-03 5.548051e-01 -1.283730e-02) (0.000000e+00 0.000000e+00 0.000000e+00)) ((8.318256e+00 -2.539101e+01 2.093870e+02) (-5.712453e-01 1.279534e-01 5.557676e+00) (0.000000e+00 0.000000e+00 0.000000e+00))
0.0001125     	((-8.649738e-01 2.004506e+01 2.515057e+00) (-1.489836e-03 5.543917e-01 -1.268043e-02) (0.000000e+00 0.000000e+00 0.000000e+00)) ((8.208224e+00 -2.526988e+01 2.090627e+02) (-5.695875e-01 1.263916e-01 5.553111e+00) (0.000000e+00 0.000000e+00 0.000000e+00))
0.000115      	((-8.498509e-01 2.002379e+01 2.499676e+00) (-1.463868e-03 5.539683e-01 -1.254002e-02) (0.000000e+00 0.000000e+00 0.000000e+00)) ((8.066054e+00 -2.510619e+01 2.086972e+02) (-5.680659e-01 1.249989e-01 5.548605e+00) (0.000000e+00 0.000000e+00 0.000000e+00))
0.0001175     	((-8.321548e-01 2.000072e+01 2.481867e+00) (-1.422428e-03 5.535325e-01 -1.238782e-02) (0.000000e+00 0.000000e+00 0.000000e+00)) ((7.902133e+00 -2.491209e+01 2.082903e+02) (-5.663976e-01 1.235163e-01 5.543826e+00) (0.000000e+00 0.000000e+00 0.000000e+00))
0.00012       	((-8.119762e-01 1.997694e+01 2.462974e+00) (-1.374236e-03 5.530996e-01 -1.225281e-02) (0.000000e+00 0.000000e+00 0.000000e+00)) ((7.728842e+00 -2.470287e+01 2.078526e+02) (-5.648923e-01 1.222238e-01 5.539011e+00) (0.000000e+00 0.000000e+00 0.000000e+00))
0.0001225     	((-7.897205e-01 1.995353e+01 2.445215e+00) (-1.301651e-03 5.526689e-01 -1.211286e-02) (0.000000e+00 0.000000e+00 0.000000e+00)) ((7.567438e+00 -2.450282e+01 2.073982e+02) (-5.633281e-01 1.209076e-01 5.533971e+00) (0.000000e+00 0.000000e+00 0.000000e+00))
0.000125      	((-7.658853e-01 1.993090e+01 2.429794e+00) (-1.209301e-03 5.522523e-01 -1.198654e-02) (0.000000e+00 0.000000e+00 0.000000e+00)) ((7.429580e+00 -2.432592e+01 2.069354e+02) (-5.619014e-01 1.197448e-01 5.528867e+00) (0.000000e+00 0.000000e+00 0.000000e+00))
0.0001275     	((-7.408580e-01 1.990883e+01 2.417529e+00) (-1.088433e-03 5.518401e-01 -1.186757e-02) (0.000000e+00 0.000000e+00 0.000000e+00)) ((7.323700e+00 -2.418184e+01 2.064651e+02) (-5.605402e-01 1.186759e-01 5.523514e+00) (0.000000e+00 0.000000e+00 0.000000e+00))
0.00013       	((-7.148260e-01 1.988735e+01 2.407687e+00) (-9.478868e-04 5.514507e-01 -1.177763e-02) (0.000000e+00 0.000000e+00 0.000000e+00)) ((7.242282e+00 -2.406409e+01 2.059890e+02) (-5.594779e-01 1.179059e-01 5.518185e+00) (0.000000e+00 0.000000e+00 0.000000e+00))
0.0001325     	((-6.881318e-01 1.986715e+01 2.399751e+00) (-7.927767e-04 5.510601e-01 -1.168913e-02) (0.000000e+00 0.000000e+00 0.000000e+00)) ((7.179466e+00 -2.396793e+01 2.055171e+02) (-5.584145e-01 1.171527e-01 5.512690e+00) (0.000000e+00 0.000000e+00 0.000000e+00))
0.000135      	((-6.622139e-01 1.984749e+01 2.392936e+00) (-6.297128e-04 5.507187e-01 -1.163378e-02) (0.000000e+00 0.000000e+00 0.000000e+00)) ((7.128092e+00 -2.388655e+01 2.050565e+02) (-5.577147e-01 1.167258e-01 5.507600e+00) (0.000000e+00 0.000000e+00 0.000000e+00))
0.0001375     	((-6.374111e-01 1.982772e+01 2.386960e+00) (-4.684010e-04 5.503851e-01 -1.157069e-02) (0.000000e+00 0.000000e+00 0.000000e+00)) ((7.085933e+00 -2.381675e+01 2.046048e+02) (-5.569392e-01 1.162075e-01 5.502598e+00) (0.000000e+00 0.000000e+00 0.000000e+00))
0.00014       	((-6.135156e-01 1.980821e+01 2.380973e+00) (-2.998082e-04 5.501180e-01 -1.157725e-02) (0.000000e+00 0.000000e+00 0.000000e+00)) ((7.043889e+00 -2.374868e+01 2.041637e+02) (-5.569120e-01 1.163827e-01 5.498180e+00) (0.000000e+00 0.000000e+00 0.000000e+00))
0.0001425     	((-5.918587e-01 1.979069e+01 2.376253e+00) (-1.359450e-04 5.498000e-01 -1.153839e-02) (0.000000e+00 0.000000e+00 0.000000e+00)) ((7.013240e+00 -2.369509e+01 2.037648e+02) (-5.563693e-01 1.160949e-01 5.493302e+00) (0.000000e+00 0.000000e+00 0.000000e+00))
0.000145      	((-5.718985e-01 1.977528e+01 2.372338e+00) (4.018921e-05 5.495730e-01 -1.161552e-02) (0.000000e+00 0.000000e+00 0.000000e+00)) ((6.988710e+00 -2.364979e+01 2.034044e+02) (-5.570647e-01 1.169726e-01 5.489208e+00) (0.000000e+00 0.000000e+00 0.000000e+00))
0.0001475     	((-5.553478e-01 1.976285e+01 2.371276e+00) (1.745730e-04 5.492386e-01 -1.159189e-02) (0.000000e+00 0.000000e+00 0.000000e+00)) ((6.990262e+00 -2.363390e+01 2.031090e+02) (-5.566391e-01 1.168118e-01 5.484468e+00) (0.000000e+00 0.000000e+00 0.000000e+00))
0.00015       	((-5.423421e-01 1.975271e+01 2.372403e+00) (3.420071e-04 5.490765e-01 -1.170407e-02) (0.000000e+00 0.000000e+00 0.000000e+00)) ((7.011585e+00 -2.364018e+01 2.028734e+02) (-5.577132e-01 1.180373e-01 5.481117e+00) (0.000000e+00 0.000000e+00 0.000000e+00))
0.0001525     	((-5.338540e-01 1.974472e+01 2.376832e+00) (4.537296e-04 5.487947e-01 -1.171986e-02) (0.000000e+00 0.000000e+00 0.000000e+00)) ((7.064081e+00 -2.368067e+01 2.027064e+02) (-5.577026e-01 1.182601e-01 5.477140e+00) (0.000000e+00 0.000000e+00 0.000000e+00))
0.000155      	((-5.287082e-01 1.973820e+01 2.383507e+00) (5.876300e-04 5.486653e-01 -1.183312e-02) (0.000000e+00 0.000000e+00 0.000000e+00)) ((7.137504e+00 -2.374390e+01 2.025891e+02) (-5.587857e-01 1.194809e-01 5.474467e+00) (0.000000e+00 0.000000e+00 0.000000e+00))
0.0001575     	((-5.278352e-01 1.973351e+01 2.393190e+00) (6.433703e-04 5.484191e-01 -1.182950e-02) (0.000000e+00 0.000000e+00 0.000000e+00)) ((7.239488e+00 -2.383874e+01 2.025342e+02) (-5.585755e-01 1.194772e-01 5.471423e+00) (0.000000e+00 0.000000e+00 0.000000e+00))
0.00016       	((-5.299260e-01 1.972992e+01 2.404476e+00) (7.443970e-04 5.483244e-01 -1.192311e-02) (0.000000e+00 0.000000e+00 0.000000e+00)) ((7.356350e+00 -2.395067e+01 2.025210e+02) (-5.594630e-01 1.204860e-01 5.469437e+00) (0.000000e+00 0.000000e+00 0.000000e+00))
0.0001625     	((-5.350808e-01 1.972764e+01 2.416757e+00) (7.870753e-04 5.481513e-01 -1.194024e-02) (0.000000e+00 0.000000e+00 0.000000e+00)) ((7.481899e+00 -2.407436e+01 2.025522e+02) (-5.595003e-01 1.206893e-01 5.467262e+00) (0.000000e+00 0.000000e+00 0.000000e+00))
0.000165      	((-5.418894e-01 1.972633e+01 2.428609e+00) (8.504831e-04 5.480808e-01 -1.200814e-02) (0.000000e+00 0.000000e+00 0.000000e+00)) ((7.602014e+00 -2.419486e+01 2.026097e+02) (-5.601230e-01 1.214192e-01 5.465905e+00) (0.000000e+00 0.000000e+00 0.000000e+00))
0.0001675     	((-5.495883e-01 1.972615e+01 2.440066e+00) (8.693980e-04 5.479107e-01 -1.196107e-02) (0.000000e+00 0.000000e+00 0.000000e+00)) ((7.717041e+00 -2.431250e+01 2.026874e+02) (-5.594938e-01 1.209665e-01 5.464005e+00) (0.000000e+00 0.000000e+00 0.000000e+00))
0.00017       	((-5.575464e-01 1.972681e+01 2.449550e+00) (9.319224e-04 5.478787e-01 -1.200681e-02) (0.000000e+00 0.000000e+00 0.000000e+00)) ((7.811266e+00 -2.441118e+01 2.027756e+02) (-5.599118e-01 1.214761e-01 5.463043e+00) (0.000000e+00 0.000000e+00 0.000000e+00))
0.0001725     	((-5.662294e-01 1.972821e+01 2.456939e+00) (9.448393e-04 5.477804e-01 -1.200150e-02) (0.000000e+00 0.000000e+00 0.000000e+00)) ((7.883618e+00 -2.449012e+01 2.028779e+02) (-5.597577e-01 1.214361e-01 5.461923e+00) (0.000000e+00 0.000000e+00 0.000000e+00))
0.000175      	((-5.747968e-01 1.972982e+01 2.461982e+00) (9.657378e-04 5.477227e-01 -1.200978e-02) (0.000000e+00 0.000000e+00 0.000000e+00)) ((7.931961e+00 -2.454608e+01 2.029805e+02) (-5.597774e-01 1.215380e-01 5.461128e+00) (0.000000e+00 0.000000e+00 0.000000e+00))
0.0001775     	((-5.831655e-01 1.973166e+01 2.464653e+00) (9.452286e-04 5.476073e-01 -1.196377e-02) (0.000000e+00 0.000000e+00 0.000000e+00)) ((7.956137e+00 -2.457857e+01 2.030830e+02) (-5.592029e-01 1.210649e-01 5.460177e+00) (0.000000e+00 0.000000e+00 0.000000e+00))
0.00018       	((-5.906752e-01 1.973338e+01 2.464193e+00) (9.404534e-04 5.475896e-01 -1.199996e-02) (0.000000e+00 0.000000e+00 0.000000e+00)) ((7.948749e+00 -2.457914e+01 2.031754e+02) (-5.595439e-01 1.214259e-01 5.460044e+00) (0.000000e+00 0.000000e+00 0.000000e+00))
0.0001825     	((-5.976058e-01 1.973531e+01 2.461301e+00) (8.977616e-04 5.474705e-01 -1.194319e-02) (0.000000e+00 0.000000e+00 0.000000e+00)) ((7.916704e+00 -2.455482e+01 2.032641e+02) (-5.588656e-01 1.208282e-01 5.459284e+00) (0.000000e+00 0.000000e+00 0.000000e+00))
0.000185      	((-6.036449e-01 1.973720e+01 2.455830e+00) (8.878465e-04 5.474629e-01 -1.198598e-02) (0.000000e+00 0.000000e+00 0.000000e+00)) ((7.858605e+00 -2.450369e+01 2.033437e+02) (-5.592945e-01 1.212516e-01 5.459308e+00) (0.000000e+00 0.000000e+00 0.000000e+00))
0.0001875     	((-6.087517e-01 1.973898e+01 2.448374e+00) (8.303605e-04 5.473956e-01 -1.200497e-02) (0.000000e+00 0.000000e+00 0.000000e+00)) ((7.780554e+00 -2.443143e+01 2.034130e+02) (-5.594416e-01 1.214023e-01 5.459223e+00) (0.000000e+00 0.000000e+00 0.000000e+00))
0.00019       	((-6.126365e-01 1.973999e+01 2.439496e+00) (7.980678e-04 5.473696e-01 -1.203064e-02) (0.000000e+00 0.000000e+00 0.000000e+00)) ((7.688844e+00 -2.434333e+01 2.034628e+02) (-5.596945e-01 1.216428e-01 5.459300e+00) (0.000000e+00 0.000000e+00 0.000000e+00))
0.0001925     	((-6.160135e-01 1.974014e+01 2.429636e+00) (7.380228e-04 5.472790e-01 -1.200529e-02) (0.000000e+00 0.000000e+00 0.000000e+00)) ((7.588110e+00 -2.424445e+01 2.034994e+02) (-5.593795e-01 1.213535e-01 5.459016e+00) (0.000000e+00 0.000000e+00 0.000000e+00))
0.000195      	((-6.186307e-01 1.973958e+01 2.418574e+00) (7.058747e-04 5.472507e-01 -1.204255e-02) (0.000000e+00 0.000000e+00 0.000000e+00)) ((7.475920e+00 -2.413240e+01 2.035218e+02) (-5.597486e-01 1.217131e-01 5.459073e+00) (0.000000e+00 0.000000e+00 0.000000e+00))
0.0001975     	((-6.206031e-01 1.973907e+01 2.407249e+00) (6.419204e-04 5.471097e-01 -1.198296e-02) (0.000000e+00 0.000000e+00 0.000000e+00)) ((7.361197e+00 -2.401690e+01 2.035383e+02) (-5.590448e-01 1.210819e-01 5.458328e+00) (0.000000e+00 0.000000e+00 0.000000e+00))
0.0002        	((-6.221297e-01 1.973863e+01 2.395511e+00) (6.238768e-04 5.470741e-01 -1.201485e-02) (0.000000e+00 0.000000e+00 0.000000e+00)) ((7.242349e+00 -2.389674e+01 2.035513e+02) (-5.593519e-01 1.214035e-01 5.458172e+00) (0.000000e+00 0.000000e+00 0.000000e+00))
0.0002025     	((-6.234636e-01 1.973820e+01 2.383648e+00) (5.767795e-04 5.469655e-01 -1.200917e-02) (0.000000e+00 0.000000e+00 0.000000e+00)) ((7.122390e+00 -2.377525e+01 2.035625e+02) (-5.592187e-01 1.213280e-01 5.457582e+00) (0.000000e+00 0.000000e+00 0.000000e+00))
0.000205      	((-6.243484e-01 1.973761e+01 2.371866e+00) (5.587255e-04 5.468834e-01 -1.200483e-02) (0.000000e+00 0.000000e+00 0.000000e+00)) ((7.003567e+00 -2.365446e+01 2.035676e+02) (-5.591183e-01 1.212895e-01 5.456961e+00) (0.000000e+00 0.000000e+00 0.000000e+00))
0.0002075     	((-6.252534e-01 1.973699e+01 2.360406e+00) (5.186631e-04 5.467449e-01 -1.196137e-02) (0.000000e+00 0.000000e+00 0.000000e+00)) ((6.888273e+00 -2.353737e+01 2.035722e+02) (-5.585735e-01 1.208422e-01 5.456002e+00) (0.000000e+00 0.000000e+00 0.000000e+00))
0.00021       	((-6.257335e-01 1.973627e+01 2.348916e+00) (5.053747e-04 5.466640e-01 -1.197256e-02) (0.000000e+00 0.000000e+00 0.000000e+00)) ((6.772914e+00 -2.342015e+01 2.035711e+02) (-5.586255e-01 1.209612e-01 5.455343e+00) (0.000000e+00 0.000000e+00 0.000000e+00))
0.0002125     	((-6.259894e-01 1.973585e+01 2.338032e+00) (4.677047e-04 5.464827e-01 -1.188870e-02) (0.000000e+00 0.000000e+00 0.000000e+00)) ((6.663600e+00 -2.330944e+01 2.035704e+02) (-5.576301e-01 1.201101e-01 5.453928e+00) (0.000000e+00 0.000000e+00 0.000000e+00))
0.000215      	((-6.260021e-01 1.973560e+01 2.327211e+00) (4.708525e-04 5.464084e-01 -1.189623e-02) (0.000000e+00 0.000000e+00 0.000000e+00)) ((6.554847e+00 -2.319974e+01 2.035687e+02) (-5.576425e-01 1.202033e-01 5.453166e+00) (0.000000e+00 0.000000e+00 0.000000e+00))
0.0002175     	((-6.259553e-01 1.973576e+01 2.316708e+00) (4.465336e-04 5.462494e-01 -1.184622e-02) (0.000000e+00 0.000000e+00 0.000000e+00)) ((6.449035e+00 -2.309375e+01 2.035701e+02) (-5.569992e-01 1.196987e-01 5.451834e+00) (0.000000e+00 0.000000e+00 0.000000e+00))
0.00022       	((-6.254280e-01 1.973624e+01 2.306194e+00) (4.494806e-04 5.461550e-01 -1.184353e-02) (0.000000e+00 0.000000e+00 0.000000e+00)) ((6.342845e+00 -2.298771e+01 2.035696e+02) (-5.568825e-01 1.196876e-01 5.450868e+00) (0.000000e+00 0.000000e+00 0.000000e+00))
0.0002225     	((-6.244749e-01 1.973726e+01 2.296416e+00) (4.178234e-04 5.459581e-01 -1.175364e-02) (0.000000e+00 0.000000e+00 0.000000e+00)) ((6.243719e+00 -2.288901e+01 2.035698e+02) (-5.557951e-01 1.187770e-01 5.449228e+00) (0.000000e+00 0.000000e+00 0.000000e+00))
0.000225      	((-6.220942e-01 1.973782e+01 2.287357e+00) (4.313159e-04 5.458783e-01 -1.176136e-02) (0.000000e+00 0.000000e+00 0.000000e+00)) ((6.152377e+00 -2.279621e+01 2.035510e+02) (-5.557876e-01 1.188775e-01 5.448299e+00) (0.000000e+00 0.000000e+00 0.000000e+00))
0.0002275     	((-6.192110e-01 1.973745e+01 2.278763e+00) (4.172331e-04 5.457374e-01 -1.171882e-02) (0.000000e+00 0.000000e+00 0.000000e+00)) ((6.066790e+00 -2.270756e+01 2.035176e+02) (-5.552214e-01 1.184541e-01 5.447041e+00) (0.000000e+00 0.000000e+00 0.000000e+00))
0.00023       	((-6.164831e-01 1.973625e+01 2.269998e+00) (4.255204e-04 5.456608e-01 -1.171566e-02) (0.000000e+00 0.000000e+00 0.000000e+00)) ((5.980321e+00 -2.261728e+01 2.034775e+02) (-5.551039e-01 1.184417e-01 5.446199e+00) (0.000000e+00 0.000000e+00 0.000000e+00))
0.0002325     	((-6.142818e-01 1.973502e+01 2.261624e+00) (3.990863e-04 5.455051e-01 -1.164064e-02) (0.000000e+00 0.000000e+00 0.000000e+00)) ((5.897899e+00 -2.253127e+01 2.034426e+02) (-5.541921e-01 1.176833e-01 5.444919e+00) (0.000000e+00 0.000000e+00 0.000000e+00))
0.000235      	((-6.120326e-01 1.973380e+01 2.253296e+00) (4.041976e-04 5.454607e-01 -1.166054e-02) (0.000000e+00 0.000000e+00 0.000000e+00)) ((5.815900e+00 -2.244542e+01 2.034073e+02) (-5.543286e-01 1.178978e-01 5.444430e+00) (0.000000e+00 0.000000e+00 0.000000e+00))
0.0002375     	((-6.096319e-01 1.973274e+01 2.245535e+00) (3.759888e-04 5.453255e-01 -1.160342e-02) (0.000000e+00 0.000000e+00 0.000000e+00)) ((5.739490e+00 -2.236482e+01 2.033722e+02) (-5.536090e-01 1.173161e-01 5.443374e+00) (0.000000e+00 0.000000e+00 0.000000e+00))
0.00024       	((-6.065233e-01 1.973142e+01 2.237772e+00) (3.793174e-04 5.452943e-01 -1.162806e-02) (0.000000e+00 0.000000e+00 0.000000e+00)) ((5.663201e+00 -2.228327e+01 2.033275e+02) (-5.537987e-01 1.175761e-01 5.443037e+00) (0.000000e+00 0.000000e+00 0.000000e+00))
0.0002425     	((-6.031123e-01 1.973012e+01 2.230488e+00) (3.426418e-04 5.451541e-01 -1.155501e-02) (0.000000e+00 0.000000e+00 0.000000e+00)) ((5.591759e+00 -2.220604e+01 2.032799e+02) (-5.529090e-01 1.168284e-01 5.442018e+00) (0.000000e+00 0.000000e+00 0.000000e+00))
0.000245      	((-5.994570e-01 1.972864e+01 2.223133e+00) (3.576513e-04 5.451393e-01 -1.157529e-02) (0.000000e+00 0.000000e+00 0.000000e+00)) ((5.519686e+00 -2.212771e+01 2.032281e+02) (-5.530637e-01 1.170541e-01 5.441726e+00) (0.000000e+00 0.000000e+00 0.000000e+00))
0.0002475     	((-5.957401e-01 1.972712e+01 2.215678e+00) (3.357168e-04 5.450550e-01 -1.155451e-02) (0.000000e+00 0.000000e+00 0.000000e+00)) ((5.446600e+00 -2.204826e+01 2.031753e+02) (-5.527454e-01 1.168399e-01 5.441116e+00) (0.000000e+00 0.000000e+00 0.000000e+00))
0.00025       	((-5.914133e-01 1.972556e+01 2.207983e+00) (3.417110e-04 5.450235e-01 -1.155978e-02) (0.000000e+00 0.000000e+00 0.000000e+00)) ((5.371026e+00 -2.196586e+01 2.031160e+02) (-5.527324e-01 1.169080e-01 5.440749e+00) (0.000000e+00 0.000000e+00 0.000000e+00))
0.0002525     	((-5.868133e-01 1.972432e+01 2.200366e+00) (3.200832e-04 5.449234e-01 -1.150698e-02) (0.000000e+00 0.000000e+00 0.000000e+00)) ((5.295920e+00 -2.188405e+01 2.030571e+02) (-5.520756e-01 1.163734e-01 5.439977e+00) (0.000000e+00 0.000000e+00 0.000000e+00))
0.000255      	((-5.814565e-01 1.972308e+01 2.192243e+00) (3.291318e-04 5.449223e-01 -1.154495e-02) (0.000000e+00 0.000000e+00 0.000000e+00)) ((5.215591e+00 -2.179654e+01 2.029905e+02) (-5.524181e-01 1.167694e-01 5.439882e+00) (0.000000e+00 0.000000e+00 0.000000e+00))
0.0002575     	((-5.756086e-01 1.972202e+01 2.184267e+00) (3.044787e-04 5.448138e-01 -1.148737e-02) (0.000000e+00 0.000000e+00 0.000000e+00)) ((5.136582e+00 -2.171016e+01 2.029207e+02) (-5.517067e-01 1.161834e-01 5.439056e+00) (0.000000e+00 0.000000e+00 0.000000e+00))
0.00026       	((-5.690942e-01 1.972079e+01 2.175884e+00) (3.266122e-04 5.448273e-01 -1.152904e-02) (0.000000e+00 0.000000e+00 0.000000e+00)) ((5.053544e+00 -2.161916e+01 2.028425e+02) (-5.520999e-01 1.166258e-01 5.438975e+00) (0.000000e+00 0.000000e+00 0.000000e+00))
0.0002625     	((-5.623491e-01 1.971952e+01 2.167386e+00) (3.126140e-04 5.447482e-01 -1.150595e-02) (0.000000e+00 0.000000e+00 0.000000e+00)) ((4.969369e+00 -2.152687e+01 2.027616e+02) (-5.517637e-01 1.163917e-01 5.438336e+00) (0.000000e+00 0.000000e+00 0.000000e+00))
0.000265      	((-5.547860e-01 1.971786e+01 2.158264e+00) (3.281915e-04 5.447544e-01 -1.155127e-02) (0.000000e+00 0.000000e+00 0.000000e+00)) ((4.879162e+00 -2.142768e+01 2.026686e+02) (-5.521905e-01 1.168641e-01 5.438250e+00) (0.000000e+00 0.000000e+00 0.000000e+00))
0.0002675     	((-5.468167e-01 1.971618e+01 2.149418e+00) (3.052340e-04 5.446447e-01 -1.148992e-02) (0.000000e+00 0.000000e+00 0.000000e+00)) ((4.791803e+00 -2.133098e+01 2.025714e+02) (-5.514448e-01 1.162397e-01 5.437398e+00) (0.000000e+00 0.000000e+00 0.000000e+00))
0.00027       	((-5.384085e-01 1.971409e+01 2.140237e+00) (3.307491e-04 5.446653e-01 -1.154086e-02) (0.000000e+00 0.000000e+00 0.000000e+00)) ((4.701369e+00 -2.123056e+01 2.024658e+02) (-5.519427e-01 1.167754e-01 5.437356e+00) (0.000000e+00 0.000000e+00 0.000000e+00))
0.0002725     	((-5.298248e-01 1.971168e+01 2.130995e+00) (3.240726e-04 5.446054e-01 -1.154057e-02) (0.000000e+00 0.000000e+00 0.000000e+00)) ((4.610619e+00 -2.112942e+01 2.023552e+02) (-5.518580e-01 1.167733e-01 5.436838e+00) (0.000000e+00 0.000000e+00 0.000000e+00))
0.000275      	((-5.204527e-01 1.970868e+01 2.121456e+00) (3.417236e-04 5.446022e-01 -1.157849e-02) (0.000000e+00 0.000000e+00 0.000000e+00)) ((4.517333e+00 -2.102465e+01 2.022310e+02) (-5.522069e-01 1.171722e-01 5.436639e+00) (0.000000e+00 0.000000e+00 0.000000e+00))