# Forces      
# CofR        : (0.000000e+00 0.000000e+00 0.000000e+00)
# Time        forces(pressure viscous porous)	moments(pressure viscous porous)
2.5e-06       	((5.478729e-01 2.288822e+01 7.311167e-02) (8.281002e-04 5.999772e-01 -5.926006e-03) (0.000000e+00 0.000000e+00 0.000000e+00)) ((-1.902155e+01 2.327069e-01 2.234608e+02) (-6.222203e-01 5.739816e-02 5.979325e+00) (0.000000e+00 0.000000e+00 0.000000e+00))
5e-06         	((-1.235487e+00 1.036064e+02 -4.132057e+00) (4.743094e-03 8.144185e-01 -1.143786e-02) (0.000000e+00 0.000000e+00 0.000000e+00)) ((-1.305048e+02 4.166858e+01 1.048393e+03) (-8.093731e-01 1.167637e-01 8.081366e+00) (0.000000e+00 0.000000e+00 0.000000e+00))
7.5e-06       	((-1.122068e+01 1.854566e+02 -1.313384e+01) (2.083778e-02 8.050710e-01 -1.071554e-02) (0.000000e+00 0.000000e+00 0.000000e+00)) ((-2.960036e+02 1.223746e+02 1.967449e+03) (-7.484416e-01 1.226761e-01 7.829212e+00) (0.000000e+00 0.000000e+00 0.000000e+00))
1e-05         	((-3.271077e+00 8.303132e+01 -2.241816e+01) (3.098249e-02 7.028170e-01 -8.282719e-03) (0.000000e+00 0.000000e+00 0.000000e+00)) ((-3.067696e+02 2.231714e+02 8.657320e+02) (-6.301995e-01 1.064502e-01 6.702186e+00) (0.000000e+00 0.000000e+00 0.000000e+00))
1.25e-05      	((1.207215e+01 3.245968e+01 -3.740951e+00) (3.526852e-02 1.176926e+00 2.132250e-01) (0.000000e+00 0.000000e+00 0.000000e+00)) ((-6.215058e+01 4.980560e+01 2.037952e+02) (1.349921e+00 -2.103311e+00 1.137485e+01) (0.000000e+00 0.000000e+00 0.000000e+00))
1.5e-05       	((2.324381e+01 2.300541e+02 6.830666e+01) (2.690226e-02 1.436328e+00 3.205223e-01) (0.000000e+00 0.000000e+00 0.000000e+00)) ((5.670781e+02 -6.637172e+02 2.056096e+03) (2.302131e+00 -3.177964e+00 1.404410e+01) (0.000000e+00 0.000000e+00 0.000000e+00))
1.75e-05      	((2.282248e-01 1.849676e+02 4.705236e+01) (-1.631839e-02 -1.712686e+00 -1.226941e+00) (0.000000e+00 0.000000e+00 0.000000e+00)) ((3.682144e+02 -4.683590e+02 1.840359e+03) (-1.171408e+01 1.221687e+01 -1.688856e+01) (0.000000e+00 0.000000e+00 0.000000e+00))
2e-05         	((-7.706953e+00 5.154021e+01 1.668881e+00) (-6.203497e-02 -2.141270e+00 -1.093186e+00) (0.000000e+00 0.000000e+00 0.000000e+00)) ((-2.459591e+01 -2.214291e+01 5.921056e+02) (-1.011176e+01 1.085961e+01 -2.069073e+01) (0.000000e+00 0.000000e+00 0.000000e+00))
2.25e-05      	((-6.291013e+00 -1.141158e+02 -4.186231e+01) (-9.110324e-02 -1.322449e+00 -6.470681e-01) (0.000000e+00 0.000000e+00 0.000000e+00)) ((-3.755269e+02 4.125799e+02 -1.071596e+03) (-6.010506e+00 6.397289e+00 -1.223530e+01) (0.000000e+00 0.000000e+00 0.000000e+00))
2.5e-05       	((2.636334e+00 -9.306813e+01 -3.265322e+01) (-2.405639e-02 6.529359e-01 -8.223168e-03) (0.000000e+00 0.000000e+00 0.000000e+00)) ((-2.875228e+02 3.269739e+02 -9.527703e+02) (-5.780562e-01 7.062046e-02 6.760952e+00) (0.000000e+00 0.000000e+00 0.000000e+00))
2.75e-05      	((1.256423e+01 -3.139909e+01 -7.766803e+00) (-6.499928e-02 1.829431e+00 3.517038e-01) (0.000000e+00 0.000000e+00 0.000000e+00)) ((-6.378946e+01 8.508488e+01 -4.393170e+02) (2.445496e+00 -3.535509e+00 1.889183e+01) (0.000000e+00 0.000000e+00 0.000000e+00))
3e-05         	((1.804087e+01 2.876691e+02 7.687229e+01) (-2.850595e-02 1.281952e+00 2.034168e-01) (0.000000e+00 0.000000e+00 0.000000e+00)) ((6.248699e+02 -7.547961e+02 2.679980e+03) (1.234905e+00 -2.041655e+00 1.307588e+01) (0.000000e+00 0.000000e+00 0.000000e+00))
3.25e-05      	((-5.669858e+00 3.253047e+02 7.797802e+01) (8.456721e-03 7.145757e-01 3.095776e-02) (0.000000e+00 0.000000e+00 0.000000e+00)) ((6.132564e+02 -7.788781e+02 3.295752e+03) (-2.009698e-01 -3.048580e-01 7.046416e+00) (0.000000e+00 0.000000e+00 0.000000e+00))
3.5e-05       	((-2.018297e+01 1.563078e+02 2.676501e+01) (1.718907e-02 5.955751e-01 2.492193e-02) (0.000000e+00 0.000000e+00 0.000000e+00)) ((1.822030e+02 -2.778290e+02 1.762144e+03) (-1.987546e-01 -2.411668e-01 5.770446e+00) (0.000000e+00 0.000000e+00 0.000000e+00))
3.75e-05      	((-2.744044e+01 3.519680e+01 -6.001750e+00) (-4.019907e-02 1.962384e-01 -4.413857e-02) (0.000000e+00 0.000000e+00 0.000000e+00)) ((-8.625970e+01 4.434980e+01 6.302662e+02) (-6.855886e-01 4.146479e-01 2.375625e+00) (0.000000e+00 0.000000e+00 0.000000e+00))
4e-05         	((-7.974734e+00 -1.940057e+02 -6.043114e+01) (2.011942e-02 4.208889e-02 -4.930700e-02) (0.000000e+00 0.000000e+00 0.000000e+00)) ((-5.169347e+02 5.966575e+02 -1.850330e+03) (-6.531122e-01 4.974865e-01 2.246063e-01) (0.000000e+00 0.000000e+00 0.000000e+00))
4.25e-05      	((1.516103e+01 -1.561361e+02 -4.236668e+01) (6.417791e-02 6.795703e-01 1.762709e-03) (0.000000e+00 0.000000e+00 0.000000e+00)) ((-3.520263e+02 4.292645e+02 -1.709089e+03) (-4.483603e-01 1.240510e-02 6.118406e+00) (0.000000e+00 0.000000e+00 0.000000e+00))
4.5e-05       	((3.241993e+01 -3.147854e+00 4.205527e+00) (8.621492e-02 1.561298e+00 1.387072e-01) (0.000000e+00 0.000000e+00 0.000000e+00)) ((4.001993e+01 -2.469880e+01 -3.614743e+02) (4.609764e-01 -1.335353e+00 1.467212e+01) (0.000000e+00 0.000000e+00 0.000000e+00))
4.75e-05      	((3.538791e+01 1.695991e+02 5.324023e+01) (-3.612890e-02 1.668579e+00 2.073423e-01) (0.000000e+00 0.000000e+00 0.000000e+00)) ((4.476876e+02 -5.097123e+02 1.326853e+03) (1.107695e+00 -2.083147e+00 1.699003e+01) (0.000000e+00 0.000000e+00 0.000000e+00))
5e-05         	((4.916533e+00 1.547708e+02 4.234139e+01) (-1.311010e-01 1.002416e+00 1.900548e-01) (0.000000e+00 0.000000e+00 0.000000e+00)) ((3.454275e+02 -4.174593e+02 1.489375e+03) (1.270677e+00 -1.963618e+00 1.132514e+01) (0.000000e+00 0.000000e+00 0.000000e+00))
5.25e-05      	((-2.818506e+01 7.954711e+01 1.202603e+01) (-1.985538e-01 7.160744e-01 2.318946e-01) (0.000000e+00 0.000000e+00 0.000000e+00)) ((7.697549e+01 -1.347863e+02 1.079510e+03) (1.842938e+00 -2.417687e+00 9.158315e+00) (0.000000e+00 0.000000e+00 0.000000e+00))
5.5e-05       	((-3.271563e+01 2.496758e+01 -5.806078e+00) (-1.714763e-01 3.255501e-01 1.571621e-01) (0.000000e+00 0.000000e+00 0.000000e+00)) ((-7.595665e+01 3.926219e+01 5.835033e+02) (1.289785e+00 -1.661718e+00 4.998020e+00) (0.000000e+00 0.000000e+00 0.000000e+00))
5.75e-05      	((-1.753939e+01 -1.107310e+00 -1.102656e+01) (-1.181398e-01 4.113699e-01 7.257903e-02) (0.000000e+00 0.000000e+00 0.000000e+00)) ((-1.154314e+02 9.952648e+01 1.684807e+02) (3.948510e-01 -7.924394e-01 5.311949e+00) (0.000000e+00 0.000000e+00 0.000000e+00))
6e-05         	((-3.815541e+00 7.566991e+00 -4.309288e+00) (-6.573750e-02 6.143903e-01 5.412478e-02) (0.000000e+00 0.000000e+00 0.000000e+00)) ((-5.200299e+01 4.053981e+01 1.137910e+02) (1.021450e-01 -5.795237e-01 6.798534e+00) (0.000000e+00 0.000000e+00 0.000000e+00))
6.25e-05      	((6.320156e-01 2.028314e+01 2.622643e+00) (-1.433167e-02 6.820693e-01 4.993391e-02) (0.000000e+00 0.000000e+00 0.000000e+00)) ((1.154607e+01 -2.580913e+01 1.949701e+02) (2.346047e-02 -5.079627e-01 6.946281e+00) (0.000000e+00 0.000000e+00 0.000000e+00))
6.5e-05       	((-1.880420e+00 2.676901e+01 5.209749e+00) (2.131390e-02 7.043843e-01 3.113997e-02) (0.000000e+00 0.000000e+00 0.000000e+00)) ((3.426104e+01 -5.295154e+01 2.860186e+02) (-1.794948e-01 -3.020580e-01 6.806262e+00) (0.000000e+00 0.000000e+00 0.000000e+00))
6.75e-05      	((-5.353861e+00 2.489446e+01 3.704108e+00) (1.190123e-02 6.608835e-01 1.139998e-02) (0.000000e+00 0.000000e+00 0.000000e+00)) ((1.993177e+01 -4.000647e+01 3.037147e+02) (-3.578453e-01 -1.111119e-01 6.471852e+00) (0.000000e+00 0.000000e+00 0.000000e+00))
7e-05         	((-6.071194e+00 2.002265e+01 1.253995e+00) (-1.175451e-03 6.134986e-01 2.653980e-03) (0.000000e+00 0.000000e+00 0.000000e+00)) ((-2.381457e+00 -1.604931e+01 2.628617e+02) (-4.217622e-01 -3.140588e-02 6.135885e+00) (0.000000e+00 0.000000e+00 0.000000e+00))
7.25e-05      	((-4.455391e+00 1.729089e+01 3.265698e-01) (-1.528031e-02 5.732274e-01 -1.065867e-02) (0.000000e+00 0.000000e+00 0.000000e+00)) ((-1.039598e+01 -5.771379e+00 2.190393e+02) (-5.353462e-01 9.304339e-02 5.881150e+00) (0.000000e+00 0.000000e+00 0.000000e+00))
7.5e-05       	((-2.805133e+00 1.747821e+01 7.573709e-01) (-1.962561e-02 5.489475e-01 -1.244994e-02) (0.000000e+00 0.000000e+00 0.000000e+00)) ((-6.240748e+00 -8.938798e+00 2.039314e+02) (-5.408509e-01 1.088051e-01 5.683934e+00) (0.000000e+00 0.000000e+00 0.000000e+00))
7.75e-05      	((-2.165515e+00 1.899211e+01 1.537218e+00) (-1.860877e-02 5.352018e-01 -1.112507e-02) (0.000000e+00 0.000000e+00 0.000000e+00)) ((6.740585e-01 -1.620471e+01 2.125223e+02) (-5.200558e-01 9.681104e-02 5.535355e+00) (0.000000e+00 0.000000e+00 0.000000e+00))
8e-05         	((-2.273232e+00 1.967949e+01 1.728421e+00) (-1.436984e-02 5.260468e-01 -8.595581e-03) (0.000000e+00 0.000000e+00 0.000000e+00)) ((2.023689e+00 -1.813607e+01 2.205356e+02) (-4.896580e-01 7.455468e-02 5.399555e+00) (0.000000e+00 0.000000e+00 0.000000e+00))
8.25e-05      	((-2.268960e+00 1.922074e+01 1.464048e+00) (-8.321582e-03 5.188793e-01 -7.260051e-03) (0.000000e+00 0.000000e+00 0.000000e+00)) ((-5.935754e-01 -1.553383e+01 2.158654e+02) (-4.726177e-01 6.452717e-02 5.265983e+00) (0.000000e+00 0.000000e+00 0.000000e+00))
8.5e-05       	((-1.898464e+00 1.824029e+01 1.245588e+00) (-5.848141e-03 5.123683e-01 -8.242625e-03) (0.000000e+00 0.000000e+00 0.000000e+00)) ((-2.361561e+00 -1.318376e+01 2.021449e+02) (-4.796610e-01 7.571266e-02 5.175906e+00) (0.000000e+00 0.000000e+00 0.000000e+00))
8.75e-05      	((-1.483665e+00 1.742007e+01 1.224516e+00) (-4.478404e-03 5.041646e-01 -1.030987e-02) (0.000000e+00 0.000000e+00 0.000000e+00)) ((-2.131485e+00 -1.275184e+01 1.895453e+02) (-4.967289e-01 9.706662e-02 5.080515e+00) (0.000000e+00 0.000000e+00 0.000000e+00))
9e-05         	((-1.232224e+00 1.707845e+01 1.363960e+00) (-3.932953e-03 4.974073e-01 -1.153552e-02) (0.000000e+00 0.000000e+00 0.000000e+00)) ((-4.925537e-01 -1.400274e+01 1.834282e+02) (-5.055308e-01 1.096011e-01 5.007868e+00) (0.000000e+00 0.000000e+00 0.000000e+00))
9.25e-05      	((-1.119166e+00 1.711512e+01 1.542213e+00) (-3.638986e-03 4.936080e-01 -1.145820e-02) (0.000000e+00 0.000000e+00 0.000000e+00)) ((1.333696e+00 -1.572461e+01 1.825674e+02) (-5.024542e-01 1.089900e-01 4.967038e+00) (0.000000e+00 0.000000e+00 0.000000e+00))
9.5e-05       	((-1.108713e+00 1.721036e+01 1.699671e+00) (-3.729152e-03 4.920609e-01 -1.103098e-02) (0.000000e+00 0.000000e+00 0.000000e+00)) ((2.905683e+00 -1.730912e+01 1.833973e+02) (-4.970687e-01 1.046480e-01 4.952377e+00) (0.000000e+00 0.000000e+00 0.000000e+00))
9.75e-05      	((-1.175619e+00 1.716717e+01 1.794061e+00) (-3.999806e-03 4.909625e-01 -1.060405e-02) (0.000000e+00 0.000000e+00 0.000000e+00)) ((3.894864e+00 -1.831801e+01 1.836712e+02) (-4.920139e-01 1.001693e-01 4.943947e+00) (0.000000e+00 0.000000e+00 0.000000e+00))
0.0001        	((-1.318737e+00 1.697296e+01 1.820883e+00) (-4.030800e-03 4.897759e-01 -1.037771e-02) (0.000000e+00 0.000000e+00 0.000000e+00)) ((4.265580e+00 -1.870214e+01 1.832272e+02) (-4.891221e-01 9.782124e-02 4.932264e+00) (0.000000e+00 0.000000e+00 0.000000e+00))
0.0001025     	((-1.465168e+00 1.673890e+01 1.785703e+00) (-4.095284e-03 4.877442e-01 -1.031866e-02) (0.000000e+00 0.000000e+00 0.000000e+00)) ((4.020807e+00 -1.846871e+01 1.824063e+02) (-4.875490e-01 9.712099e-02 4.912561e+00) (0.000000e+00 0.000000e+00 0.000000e+00))
0.000105      	((-1.569321e+00 1.655657e+01 1.713015e+00) (-4.322890e-03 4.851960e-01 -1.035918e-02) (0.000000e+00 0.000000e+00 0.000000e+00)) ((3.369887e+00 -1.783286e+01 1.816473e+02) (-4.867617e-01 9.730917e-02 4.889429e+00) (0.000000e+00 0.000000e+00 0.000000e+00))
0.0001075     	((-1.610942e+00 1.646881e+01 1.631552e+00) (-4.701904e-03 4.826580e-01 -1.042155e-02) (0.000000e+00 0.000000e+00 0.000000e+00)) ((2.585489e+00 -1.706855e+01 1.811768e+02) (-4.862067e-01 9.760479e-02 4.867952e+00) (0.000000e+00 0.000000e+00 0.000000e+00))
0.00011       	((-1.612613e+00 1.646426e+01 1.565588e+00) (-5.144475e-03 4.804558e-01 -1.041409e-02) (0.000000e+00 0.000000e+00 0.000000e+00)) ((1.919064e+00 -1.643126e+01 1.811264e+02) (-4.851104e-01 9.716314e-02 4.850441e+00) (0.000000e+00 0.000000e+00 0.000000e+00))
0.0001125     	((-1.614487e+00 1.650029e+01 1.526135e+00) (-5.595861e-03 4.787048e-01 -1.025544e-02) (0.000000e+00 0.000000e+00 0.000000e+00)) ((1.501713e+00 -1.605446e+01 1.814918e+02) (-4.826577e-01 9.520938e-02 4.837476e+00) (0.000000e+00 0.000000e+00 0.000000e+00))
0.000115      	((-1.633996e+00 1.652767e+01 1.508670e+00) (-6.013822e-03 4.773893e-01 -1.008234e-02) (0.000000e+00 0.000000e+00 0.000000e+00)) ((1.310971e+00 -1.590305e+01 1.819608e+02) (-4.802821e-01 9.313672e-02 4.828485e+00) (0.000000e+00 0.000000e+00 0.000000e+00))
0.0001175     	((-1.662915e+00 1.652235e+01 1.503105e+00) (-6.429237e-03 4.761837e-01 -9.928584e-03) (0.000000e+00 0.000000e+00 0.000000e+00)) ((1.256008e+00 -1.586967e+01 1.822039e+02) (-4.781489e-01 9.125576e-02 4.820561e+00) (0.000000e+00 0.000000e+00 0.000000e+00))
0.00012       	((-1.679860e+00 1.648880e+01 1.504182e+00) (-6.793762e-03 4.748794e-01 -9.839883e-03) (0.000000e+00 0.000000e+00 0.000000e+00)) ((1.282061e+00 -1.588700e+01 1.820423e+02) (-4.766221e-01 9.005952e-02 4.811171e+00) (0.000000e+00 0.000000e+00 0.000000e+00))
0.0001225     	((-1.667727e+00 1.644220e+01 1.510706e+00) (-7.108640e-03 4.736001e-01 -9.795276e-03) (0.000000e+00 0.000000e+00 0.000000e+00)) ((1.370511e+00 -1.593263e+01 1.814521e+02) (-4.756326e-01 8.935818e-02 4.801566e+00) (0.000000e+00 0.000000e+00 0.000000e+00))
0.000125      	((-1.625188e+00 1.639765e+01 1.523963e+00) (-7.338807e-03 4.723494e-01 -9.788086e-03) (0.000000e+00 0.000000e+00 0.000000e+00)) ((1.527729e+00 -1.602026e+01 1.805721e+02) (-4.750727e-01 8.910316e-02 4.791433e+00) (0.000000e+00 0.000000e+00 0.000000e+00))
0.0001275     	((-1.559280e+00 1.635882e+01 1.544865e+00) (-7.496240e-03 4.712245e-01 -9.787014e-03) (0.000000e+00 0.000000e+00 0.000000e+00)) ((1.762786e+00 -1.616471e+01 1.795137e+02) (-4.746387e-01 8.896547e-02 4.781836e+00) (0.000000e+00 0.000000e+00 0.000000e+00))
0.00013       	((-1.480227e+00 1.632069e+01 1.575236e+00) (-7.550323e-03 4.703608e-01 -9.807552e-03) (0.000000e+00 0.000000e+00 0.000000e+00)) ((2.097400e+00 -1.639299e+01 1.783323e+02) (-4.746146e-01 8.914110e-02 4.773817e+00) (0.000000e+00 0.000000e+00 0.000000e+00))
0.0001325     	((-1.392963e+00 1.627743e+01 1.615116e+00) (-7.547895e-03 4.696274e-01 -9.805968e-03) (0.000000e+00 0.000000e+00 0.000000e+00)) ((2.534172e+00 -1.671022e+01 1.770192e+02) (-4.744260e-01 8.914360e-02 4.766528e+00) (0.000000e+00 0.000000e+00 0.000000e+00))
0.000135      	((-1.297562e+00 1.622830e+01 1.660423e+00) (-7.466176e-03 4.690358e-01 -9.806402e-03) (0.000000e+00 0.000000e+00 0.000000e+00)) ((3.030458e+00 -1.707749e+01 1.755660e+02) (-4.743479e-01 8.923462e-02 4.759861e+00) (0.000000e+00 0.000000e+00 0.000000e+00))
0.0001375     	((-1.192995e+00 1.617812e+01 1.703881e+00) (-7.324479e-03 4.684390e-01 -9.791401e-03) (0.000000e+00 0.000000e+00 0.000000e+00)) ((3.507117e+00 -1.742328e+01 1.740081e+02) (-4.740948e-01 8.921774e-02 4.752528e+00) (0.000000e+00 0.000000e+00 0.000000e+00))
0.00014       	((-1.079687e+00 1.613420e+01 1.739685e+00) (-7.090033e-03 4.678247e-01 -9.774669e-03) (0.000000e+00 0.000000e+00 0.000000e+00)) ((3.898885e+00 -1.769200e+01 1.724211e+02) (-4.738074e-01 8.924696e-02 4.744074e+00) (0.000000e+00 0.000000e+00 0.000000e+00))
0.0001425     	((-9.599891e-01 1.610123e+01 1.766761e+00) (-6.755679e-03 4.671104e-01 -9.744564e-03) (0.000000e+00 0.000000e+00 0.000000e+00)) ((4.191526e+00 -1.787595e+01 1.708744e+02) (-4.732926e-01 8.919983e-02 4.733587e+00) (0.000000e+00 0.000000e+00 0.000000e+00))
0.000145      	((-8.408018e-01 1.607983e+01 1.788896e+00) (-6.319748e-03 4.663852e-01 -9.730010e-03) (0.000000e+00 0.000000e+00 0.000000e+00)) ((4.423986e+00 -1.801825e+01 1.694447e+02) (-4.729211e-01 8.937185e-02 4.721942e+00) (0.000000e+00 0.000000e+00 0.000000e+00))
0.0001475     	((-7.292161e-01 1.606715e+01 1.809550e+00) (-5.847161e-03 4.656114e-01 -9.707456e-03) (0.000000e+00 0.000000e+00 0.000000e+00)) ((4.634243e+00 -1.815737e+01 1.681763e+02) (-4.723999e-01 8.947004e-02 4.709408e+00) (0.000000e+00 0.000000e+00 0.000000e+00))
0.00015       	((-6.302187e-01 1.605796e+01 1.830629e+00) (-5.340015e-03 4.648447e-01 -9.688046e-03) (0.000000e+00 0.000000e+00 0.000000e+00)) ((4.845914e+00 -1.831392e+01 1.670690e+02) (-4.718953e-01 8.961109e-02 4.696573e+00) (0.000000e+00 0.000000e+00 0.000000e+00))
0.0001525     	((-5.444572e-01 1.604776e+01 1.852427e+00) (-4.836006e-03 4.640129e-01 -9.648422e-03) (0.000000e+00 0.000000e+00 0.000000e+00)) ((5.065151e+00 -1.848877e+01 1.660855e+02) (-4.711046e-01 8.953015e-02 4.683097e+00) (0.000000e+00 0.000000e+00 0.000000e+00))
0.000155      	((-4.713154e-01 1.603508e+01 1.873746e+00) (-4.334132e-03 4.631715e-01 -9.578896e-03) (0.000000e+00 0.000000e+00 0.000000e+00)) ((5.280433e+00 -1.866776e+01 1.652056e+02) (-4.699843e-01 8.914241e-02 4.669540e+00) (0.000000e+00 0.000000e+00 0.000000e+00))
0.0001575     	((-4.096172e-01 1.602182e+01 1.893478e+00) (-3.865601e-03 4.622637e-01 -9.462740e-03) (0.000000e+00 0.000000e+00 0.000000e+00)) ((5.478445e+00 -1.883765e+01 1.644366e+02) (-4.683082e-01 8.825796e-02 4.655646e+00) (0.000000e+00 0.000000e+00 0.000000e+00))
0.00016       	((-3.588447e-01 1.601053e+01 1.911305e+00) (-3.439983e-03 4.613837e-01 -9.317035e-03) (0.000000e+00 0.000000e+00 0.000000e+00)) ((5.653949e+00 -1.899409e+01 1.637995e+02) (-4.663388e-01 8.705522e-02 4.642469e+00) (0.000000e+00 0.000000e+00 0.000000e+00))
0.0001625     	((-3.184175e-01 1.600272e+01 1.926880e+00) (-3.074201e-03 4.604912e-01 -9.148450e-03) (0.000000e+00 0.000000e+00 0.000000e+00)) ((5.802577e+00 -1.913241e+01 1.633039e+02) (-4.641071e-01 8.558722e-02 4.629778e+00) (0.000000e+00 0.000000e+00 0.000000e+00))
0.000165      	((-2.886665e-01 1.599824e+01 1.939951e+00) (-2.767055e-03 4.596717e-01 -8.978505e-03) (0.000000e+00 0.000000e+00 0.000000e+00)) ((5.922673e+00 -1.924988e+01 1.629523e+02) (-4.619189e-01 8.408128e-02 4.618426e+00) (0.000000e+00 0.000000e+00 0.000000e+00))
0.0001675     	((-2.697985e-01 1.599525e+01 1.950749e+00) (-2.529032e-03 4.588855e-01 -8.817325e-03) (0.000000e+00 0.000000e+00 0.000000e+00)) ((6.018773e+00 -1.934852e+01 1.627291e+02) (-4.598321e-01 8.262625e-02 4.608121e+00) (0.000000e+00 0.000000e+00 0.000000e+00))
0.00017       	((-2.620905e-01 1.599261e+01 1.959271e+00) (-2.355442e-03 4.582197e-01 -8.672981e-03) (0.000000e+00 0.000000e+00 0.000000e+00)) ((6.092474e+00 -1.942868e+01 1.626260e+02) (-4.580065e-01 8.131248e-02 4.599693e+00) (0.000000e+00 0.000000e+00 0.000000e+00))
0.0001725     	((-2.658869e-01 1.599046e+01 1.965209e+00) (-2.248583e-03 4.576312e-01 -8.535539e-03) (0.000000e+00 0.000000e+00 0.000000e+00)) ((6.140892e+00 -1.948810e+01 1.626479e+02) (-4.562907e-01 8.003096e-02 4.592727e+00) (0.000000e+00 0.000000e+00 0.000000e+00))
0.000175      	((-2.805779e-01 1.598971e+01 1.967993e+00) (-2.187519e-03 4.571702e-01 -8.409165e-03) (0.000000e+00 0.000000e+00 0.000000e+00)) ((6.157833e+00 -1.952178e+01 1.627964e+02) (-4.547848e-01 7.884076e-02 4.587513e+00) (0.000000e+00 0.000000e+00 0.000000e+00))
0.0001775     	((-3.045766e-01 1.599122e+01 1.967215e+00) (-2.175304e-03 4.567677e-01 -8.287055e-03) (0.000000e+00 0.000000e+00 0.000000e+00)) ((6.138422e+00 -1.952571e+01 1.630631e+02) (-4.533564e-01 7.765986e-02 4.583382e+00) (0.000000e+00 0.000000e+00 0.000000e+00))
0.00018       	((-3.358219e-01 1.599456e+01 1.962653e+00) (-2.193205e-03 4.564508e-01 -8.174725e-03) (0.000000e+00 0.000000e+00 0.000000e+00)) ((6.080633e+00 -1.949739e+01 1.634213e+02) (-4.521019e-01 7.655795e-02 4.580413e+00) (0.000000e+00 0.000000e+00 0.000000e+00))
0.0001825     	((-3.718230e-01 1.599850e+01 1.954642e+00) (-2.241614e-03 4.561592e-01 -8.067014e-03) (0.000000e+00 0.000000e+00 0.000000e+00)) ((5.988495e+00 -1.943899e+01 1.638332e+02) (-4.509146e-01 7.547297e-02 4.577998e+00) (0.000000e+00 0.000000e+00 0.000000e+00))
0.000185      	((-4.101321e-01 1.600170e+01 1.944025e+00) (-2.301688e-03 4.559178e-01 -7.969198e-03) (0.000000e+00 0.000000e+00 0.000000e+00)) ((5.871309e+00 -1.935758e+01 1.642599e+02) (-4.498887e-01 7.447647e-02 4.576199e+00) (0.000000e+00 0.000000e+00 0.000000e+00))
0.0001875     	((-4.475914e-01 1.600325e+01 1.932090e+00) (-2.382513e-03 4.556726e-01 -7.900404e-03) (0.000000e+00 0.000000e+00 0.000000e+00)) ((5.742548e+00 -1.926378e+01 1.646603e+02) (-4.491637e-01 7.374676e-02 4.574562e+00) (0.000000e+00 0.000000e+00 0.000000e+00))
0.00019       	((-4.815663e-01 1.600264e+01 1.920046e+00) (-2.467037e-03 4.554567e-01 -7.857445e-03) (0.000000e+00 0.000000e+00 0.000000e+00)) ((5.614626e+00 -1.916793e+01 1.650026e+02) (-4.487455e-01 7.326852e-02 4.573252e+00) (0.000000e+00 0.000000e+00 0.000000e+00))
0.0001925     	((-5.104629e-01 1.600009e+01 1.909091e+00) (-2.565031e-03 4.552260e-01 -7.827105e-03) (0.000000e+00 0.000000e+00 0.000000e+00)) ((5.499330e+00 -1.908063e+01 1.652729e+02) (-4.484501e-01 7.289958e-02 4.571923e+00) (0.000000e+00 0.000000e+00 0.000000e+00))
0.000195      	((-5.337201e-01 1.599614e+01 1.899891e+00) (-2.658677e-03 4.550231e-01 -7.810790e-03) (0.000000e+00 0.000000e+00 0.000000e+00)) ((5.402992e+00 -1.900801e+01 1.654710e+02) (-4.483385e-01 7.267361e-02 4.570830e+00) (0.000000e+00 0.000000e+00 0.000000e+00))
0.0001975     	((-5.512769e-01 1.599150e+01 1.892605e+00) (-2.759799e-03 4.548134e-01 -7.807541e-03) (0.000000e+00 0.000000e+00 0.000000e+00)) ((5.326729e+00 -1.895122e+01 1.656036e+02) (-4.483526e-01 7.256905e-02 4.569743e+00) (0.000000e+00 0.000000e+00 0.000000e+00))
0.0002        	((-5.640214e-01 1.598683e+01 1.887142e+00) (-2.856900e-03 4.546441e-01 -7.822339e-03) (0.000000e+00 0.000000e+00 0.000000e+00)) ((5.269303e+00 -1.890970e+01 1.656868e+02) (-4.485881e-01 7.264821e-02 4.569022e+00) (0.000000e+00 0.000000e+00 0.000000e+00))
0.0002025     	((-5.726776e-01 1.598289e+01 1.883534e+00) (-2.956242e-03 4.544800e-01 -7.839446e-03) (0.000000e+00 0.000000e+00 0.000000e+00)) ((5.230637e+00 -1.888390e+01 1.657354e+02) (-4.488406e-01 7.274520e-02 4.568377e+00) (0.000000e+00 0.000000e+00 0.000000e+00))
0.000205      	((-5.778227e-01 1.598002e+01 1.881788e+00) (-3.039910e-03 4.543495e-01 -7.861224e-03) (0.000000e+00 0.000000e+00 0.000000e+00)) ((5.210721e+00 -1.887410e+01 1.657588e+02) (-4.491685e-01 7.290153e-02 4.567916e+00) (0.000000e+00 0.000000e+00 0.000000e+00))
0.0002075     	((-5.798257e-01 1.597832e+01 1.881708e+00) (-3.118326e-03 4.542201e-01 -7.880203e-03) (0.000000e+00 0.000000e+00 0.000000e+00)) ((5.207488e+00 -1.887836e+01 1.657617e+02) (-4.494534e-01 7.303161e-02 4.567412e+00) (0.000000e+00 0.000000e+00 0.000000e+00))
0.00021       	((-5.795207e-01 1.597797e+01 1.882921e+00) (-3.185072e-03 4.541262e-01 -7.900921e-03) (0.000000e+00 0.000000e+00 0.000000e+00)) ((5.217045e+00 -1.889349e+01 1.657543e+02) (-4.497794e-01 7.319020e-02 4.567147e+00) (0.000000e+00 0.000000e+00 0.000000e+00))
0.0002125     	((-5.774472e-01 1.597909e+01 1.885071e+00) (-3.249527e-03 4.540238e-01 -7.911555e-03) (0.000000e+00 0.000000e+00 0.000000e+00)) ((5.235598e+00 -1.891615e+01 1.657431e+02) (-4.499790e-01 7.324758e-02 4.566772e+00) (0.000000e+00 0.000000e+00 0.000000e+00))
0.000215      	((-5.737914e-01 1.598144e+01 1.888021e+00) (-3.296137e-03 4.539237e-01 -7.910972e-03) (0.000000e+00 0.000000e+00 0.000000e+00)) ((5.261825e+00 -1.894513e+01 1.657280e+02) (-4.500649e-01 7.320821e-02 4.566241e+00) (0.000000e+00 0.000000e+00 0.000000e+00))
0.0002175     	((-5.683769e-01 1.598432e+01 1.891693e+00) (-3.323475e-03 4.537785e-01 -7.891657e-03) (0.000000e+00 0.000000e+00 0.000000e+00)) ((5.295324e+00 -1.897958e+01 1.657003e+02) (-4.499101e-01 7.299219e-02 4.565064e+00) (0.000000e+00 0.000000e+00 0.000000e+00))
0.00022       	((-5.615234e-01 1.598751e+01 1.895630e+00) (-3.327743e-03 4.536409e-01 -7.865597e-03) (0.000000e+00 0.000000e+00 0.000000e+00)) ((5.331495e+00 -1.901546e+01 1.656611e+02) (-4.496881e-01 7.272444e-02 4.563728e+00) (0.000000e+00 0.000000e+00 0.000000e+00))
0.0002225     	((-5.533480e-01 1.599114e+01 1.899287e+00) (-3.321011e-03 4.534840e-01 -7.826845e-03) (0.000000e+00 0.000000e+00 0.000000e+00)) ((5.364565e+00 -1.904759e+01 1.656126e+02) (-4.493045e-01 7.233345e-02 4.562082e+00) (0.000000e+00 0.000000e+00 0.000000e+00))
0.000225      	((-5.439505e-01 1.599518e+01 1.902384e+00) (-3.306294e-03 4.533372e-01 -7.783756e-03) (0.000000e+00 0.000000e+00 0.000000e+00)) ((5.391649e+00 -1.907354e+01 1.655560e+02) (-4.488815e-01 7.190605e-02 4.560454e+00) (0.000000e+00 0.000000e+00 0.000000e+00))
0.0002275     	((-5.331506e-01 1.599924e+01 1.905183e+00) (-3.284366e-03 4.531554e-01 -7.733095e-03) (0.000000e+00 0.000000e+00 0.000000e+00)) ((5.415621e+00 -1.909590e+01 1.654856e+02) (-4.483401e-01 7.140389e-02 4.558400e+00) (0.000000e+00 0.000000e+00 0.000000e+00))
0.00023       	((-5.211865e-01 1.600278e+01 1.907887e+00) (-3.244959e-03 4.529824e-01 -7.679997e-03) (0.000000e+00 0.000000e+00 0.000000e+00)) ((5.438906e+00 -1.911701e+01 1.653986e+02) (-4.477778e-01 7.088905e-02 4.556261e+00) (0.000000e+00 0.000000e+00 0.000000e+00))
0.0002325     	((-5.082144e-01 1.600566e+01 1.910545e+00) (-3.203831e-03 4.527984e-01 -7.622152e-03) (0.000000e+00 0.000000e+00 0.000000e+00)) ((5.462028e+00 -1.913753e+01 1.652952e+02) (-4.471384e-01 7.032430e-02 4.553994e+00) (0.000000e+00 0.000000e+00 0.000000e+00))
0.000235      	((-4.943725e-01 1.600797e+01 1.912967e+00) (-3.158251e-03 4.526442e-01 -7.566155e-03) (0.000000e+00 0.000000e+00 0.000000e+00)) ((5.482986e+00 -1.915576e+01 1.651775e+02) (-4.465323e-01 6.978270e-02 4.551984e+00) (0.000000e+00 0.000000e+00 0.000000e+00))
0.0002375     	((-4.794174e-01 1.600974e+01 1.915153e+00) (-3.115335e-03 4.524884e-01 -7.508975e-03) (0.000000e+00 0.000000e+00 0.000000e+00)) ((5.501745e+00 -1.917151e+01 1.650434e+02) (-4.458900e-01 6.922523e-02 4.549985e+00) (0.000000e+00 0.000000e+00 0.000000e+00))
0.00024       	((-4.636397e-01 1.601080e+01 1.917146e+00) (-3.068296e-03 4.523646e-01 -7.451396e-03) (0.000000e+00 0.000000e+00 0.000000e+00)) ((5.518875e+00 -1.918529e+01 1.648938e+02) (-4.452586e-01 6.866857e-02 4.548271e+00) (0.000000e+00 0.000000e+00 0.000000e+00))
0.0002425     	((-4.473702e-01 1.601119e+01 1.918904e+00) (-3.028064e-03 4.522437e-01 -7.390294e-03) (0.000000e+00 0.000000e+00 0.000000e+00)) ((5.533919e+00 -1.919662e+01 1.647328e+02) (-4.445715e-01 6.807128e-02 4.546657e+00) (0.000000e+00 0.000000e+00 0.000000e+00))
0.000245      	((-4.312882e-01 1.601127e+01 1.920105e+00) (-2.988232e-03 4.521620e-01 -7.333004e-03) (0.000000e+00 0.000000e+00 0.000000e+00)) ((5.543510e+00 -1.920252e+01 1.645702e+02) (-4.439446e-01 6.751490e-02 4.545443e+00) (0.000000e+00 0.000000e+00 0.000000e+00))
0.0002475     	((-4.161313e-01 1.601149e+01 1.920521e+00) (-2.954506e-03 4.520913e-01 -7.279292e-03) (0.000000e+00 0.000000e+00 0.000000e+00)) ((5.545078e+00 -1.920078e+01 1.644185e+02) (-4.433421e-01 6.698950e-02 4.544403e+00) (0.000000e+00 0.000000e+00 0.000000e+00))
0.00025       	((-4.027932e-01 1.601214e+01 1.920139e+00) (-2.918246e-03 4.520633e-01 -7.231673e-03) (0.000000e+00 0.000000e+00 0.000000e+00)) ((5.538408e+00 -1.919157e+01 1.642895e+02) (-4.428307e-01 6.652965e-02 4.543765e+00) (0.000000e+00 0.000000e+00 0.000000e+00))
0.0002525     	((-3.919774e-01 1.601338e+01 1.919003e+00) (-2.890449e-03 4.520368e-01 -7.192174e-03) (0.000000e+00 0.000000e+00 0.000000e+00)) ((5.523913e+00 -1.917536e+01 1.641923e+02) (-4.423897e-01 6.614484e-02 4.543230e+00) (0.000000e+00 0.000000e+00 0.000000e+00))
0.000255      	((-3.844847e-01 1.601530e+01 1.917188e+00) (-2.863388e-03 4.520431e-01 -7.162362e-03) (0.000000e+00 0.000000e+00 0.000000e+00)) ((5.502340e+00 -1.915318e+01 1.641361e+02) (-4.420756e-01 6.586140e-02 4.543033e+00) (0.000000e+00 0.000000e+00 0.000000e+00))
0.0002575     	((-3.808997e-01 1.601804e+01 1.914816e+00) (-2.843872e-03 4.520505e-01 -7.140044e-03) (0.000000e+00 0.000000e+00 0.000000e+00)) ((5.474808e+00 -1.912643e+01 1.641285e+02) (-4.418314e-01 6.564995e-02 4.542926e+00) (0.000000e+00 0.000000e+00 0.000000e+00))
0.00026       	((-3.815127e-01 1.602158e+01 1.911940e+00) (-2.832296e-03 4.520809e-01 -7.132141e-03) (0.000000e+00 0.000000e+00 0.000000e+00)) ((5.441892e+00 -1.909594e+01 1.641723e+02) (-4.417579e-01 6.558219e-02 4.543130e+00) (0.000000e+00 0.000000e+00 0.000000e+00))
0.0002625     	((-3.861011e-01 1.602585e+01 1.908732e+00) (-2.834710e-03 4.521010e-01 -7.132781e-03) (0.000000e+00 0.000000e+00 0.000000e+00)) ((5.405345e+00 -1.906337e+01 1.642646e+02) (-4.417606e-01 6.559236e-02 4.543372e+00) (0.000000e+00 0.000000e+00 0.000000e+00))
0.000265      	((-3.941753e-01 1.603063e+01 1.905473e+00) (-2.841222e-03 4.521353e-01 -7.137483e-03) (0.000000e+00 0.000000e+00 0.000000e+00)) ((5.368097e+00 -1.903158e+01 1.643980e+02) (-4.418296e-01 6.564585e-02 4.543801e+00) (0.000000e+00 0.000000e+00 0.000000e+00))
0.0002675     	((-4.047375e-01 1.603563e+01 1.902298e+00) (-2.859951e-03 4.521444e-01 -7.149508e-03) (0.000000e+00 0.000000e+00 0.000000e+00)) ((5.331670e+00 -1.900163e+01 1.645594e+02) (-4.419561e-01 6.576534e-02 4.544101e+00) (0.000000e+00 0.000000e+00 0.000000e+00))
0.00027       	((-4.167254e-01 1.604060e+01 1.899330e+00) (-2.880636e-03 4.521577e-01 -7.169791e-03) (0.000000e+00 0.000000e+00 0.000000e+00)) ((5.297420e+00 -1.897461e+01 1.647351e+02) (-4.421864e-01 6.596843e-02 4.544460e+00) (0.000000e+00 0.000000e+00 0.000000e+00))
0.0002725     	((-4.288715e-01 1.604539e+01 1.896781e+00) (-2.905787e-03 4.521429e-01 -7.191676e-03) (0.000000e+00 0.000000e+00 0.000000e+00)) ((5.267498e+00 -1.895228e+01 1.649104e+02) (-4.424186e-01 6.618237e-02 4.544581e+00) (0.000000e+00 0.000000e+00 0.000000e+00))
0.000275      	((-4.399216e-01 1.604979e+01 1.894734e+00) (-2.929137e-03 4.521249e-01 -7.217885e-03) (0.000000e+00 0.000000e+00 0.000000e+00)) ((5.242856e+00 -1.893516e+01 1.650702e+02) (-4.427117e-01 6.644115e-02 4.544648e+00) (0.000000e+00 0.000000e+00 0.000000e+00))