# Forces      
# CofR        : (0.000000e+00 0.000000e+00 0.000000e+00)
# Time        forces(pressure viscous porous)	moments(pressure viscous porous)
2.5e-06       	((2.846375e-01 1.199883e+01 6.604994e-01) (6.942776e-04 3.777039e-01 6.450096e-03) (0.000000e+00 0.000000e+00 0.000000e+00)) ((-4.780783e+00 -6.214008e+00 1.171942e+02) (-2.940322e-01 -6.542708e-02 3.767884e+00) (0.000000e+00 0.000000e+00 0.000000e+00))
5e-06         	((-1.356218e+00 4.877663e+01 2.190504e+00) (4.544723e-03 4.878185e-01 1.212695e-03) (0.000000e+00 0.000000e+00 0.000000e+00)) ((-2.393344e+01 -2.290044e+01 5.014207e+02) (-4.060259e-01 -9.603580e-03 4.829425e+00) (0.000000e+00 0.000000e+00 0.000000e+00))
7.5e-06       	((-6.416997e+00 1.080894e+02 1.430871e+01) (6.651482e-03 4.588988e-01 -2.497050e-03) (0.000000e+00 0.000000e+00 0.000000e+00)) ((3.255363e+01 -1.487482e+02 1.145661e+03) (-4.070533e-01 2.853128e-02 4.518594e+00) (0.000000e+00 0.000000e+00 0.000000e+00))
1e-05         	((-3.316479e+00 6.859065e+01 1.210658e+00) (1.491993e-02 3.607555e-01 -3.693718e-02) (0.000000e+00 0.000000e+00 0.000000e+00)) ((-5.307129e+01 -1.465064e+01 7.193077e+02) (-6.446538e-01 3.795682e-01 3.454143e+00) (0.000000e+00 0.000000e+00 0.000000e+00))
1.25e-05      	((2.037445e+00 7.518340e+00 -1.288252e+01) (1.619043e-02 3.515580e-01 -1.868937e-02) (0.000000e+00 0.000000e+00 0.000000e+00)) ((-1.269499e+02 1.312430e+02 5.456371e+01) (-4.621878e-01 1.974190e-01 3.349319e+00) (0.000000e+00 0.000000e+00 0.000000e+00))
1.5e-05       	((2.110316e+00 -4.304543e+00 -8.174643e+00) (1.349316e-02 3.302255e-01 -4.332084e-03) (0.000000e+00 0.000000e+00 0.000000e+00)) ((-6.991407e+01 8.415229e+01 -6.428972e+01) (-3.082216e-01 5.174526e-02 3.164061e+00) (0.000000e+00 0.000000e+00 0.000000e+00))
1.75e-05      	((-5.321514e-02 9.442011e+00 1.380176e+00) (8.102283e-03 3.561499e-01 1.424397e-02) (0.000000e+00 0.000000e+00 0.000000e+00)) ((7.355204e+00 -1.359212e+01 9.504711e+01) (-1.712655e-01 -1.376590e-01 3.477832e+00) (0.000000e+00 0.000000e+00 0.000000e+00))
2e-05         	((-1.101091e+00 2.026339e+01 5.877433e+00) (3.150829e-03 3.414357e-01 9.515421e-03) (0.000000e+00 0.000000e+00 0.000000e+00)) ((3.864672e+01 -5.954174e+01 2.138834e+02) (-2.039096e-01 -9.397481e-02 3.381082e+00) (0.000000e+00 0.000000e+00 0.000000e+00))
2.25e-05      	((-1.008154e+00 1.902178e+01 3.889143e+00) (-2.390067e-04 3.172393e-01 -2.273962e-03) (0.000000e+00 0.000000e+00 0.000000e+00)) ((1.962472e+01 -3.951008e+01 2.005866e+02) (-2.942499e-01 2.132816e-02 3.173862e+00) (0.000000e+00 0.000000e+00 0.000000e+00))
2.5e-05       	((-5.624519e-01 1.070689e+01 -7.346739e-01) (-2.155516e-03 3.027024e-01 -1.108189e-02) (0.000000e+00 0.000000e+00 0.000000e+00)) ((-1.730688e+01 7.184269e+00 1.130008e+02) (-3.653931e-01 1.077361e-01 3.047908e+00) (0.000000e+00 0.000000e+00 0.000000e+00))
2.75e-05      	((-3.257362e-01 4.859814e+00 -3.148634e+00) (-2.450511e-03 2.881302e-01 -1.533496e-02) (0.000000e+00 0.000000e+00 0.000000e+00)) ((-3.469866e+01 3.152954e+01 5.217426e+01) (-3.905012e-01 1.501303e-01 2.905305e+00) (0.000000e+00 0.000000e+00 0.000000e+00))
3e-05         	((-2.957563e-01 5.331849e+00 -1.987274e+00) (-1.799039e-03 2.804862e-01 -1.240458e-02) (0.000000e+00 0.000000e+00 0.000000e+00)) ((-2.336118e+01 1.989208e+01 5.657982e+01) (-3.519859e-01 1.216839e-01 2.822319e+00) (0.000000e+00 0.000000e+00 0.000000e+00))
3.25e-05      	((-3.097399e-01 9.174257e+00 6.216053e-01) (-1.321158e-03 2.813282e-01 -6.588537e-03) (0.000000e+00 0.000000e+00 0.000000e+00)) ((-1.446806e+00 -6.256656e+00 9.511097e+01) (-2.950829e-01 6.400953e-02 2.825873e+00) (0.000000e+00 0.000000e+00 0.000000e+00))
3.5e-05       	((-2.790028e-01 1.164060e+01 2.029511e+00) (-1.289954e-03 2.841404e-01 -2.128862e-03) (0.000000e+00 0.000000e+00 0.000000e+00)) ((9.772328e+00 -2.032811e+01 1.194436e+02) (-2.549376e-01 1.931567e-02 2.853575e+00) (0.000000e+00 0.000000e+00 0.000000e+00))
3.75e-05      	((-2.049360e-01 1.101934e+01 1.521982e+00) (-1.488373e-03 2.836984e-01 -5.810402e-04) (0.000000e+00 0.000000e+00 0.000000e+00)) ((5.142194e+00 -1.517762e+01 1.124919e+02) (-2.408892e-01 3.569301e-03 2.851154e+00) (0.000000e+00 0.000000e+00 0.000000e+00))
4e-05         	((-1.230242e-01 8.923901e+00 2.104751e-01) (-1.757096e-03 2.790617e-01 -1.663149e-03) (0.000000e+00 0.000000e+00 0.000000e+00)) ((-5.847134e+00 -1.968605e+00 9.073378e+01) (-2.485990e-01 1.411353e-02 2.807566e+00) (0.000000e+00 0.000000e+00 0.000000e+00))
4.25e-05      	((-5.833516e-02 7.630425e+00 -5.339621e-01) (-1.964417e-03 2.725798e-01 -3.736622e-03) (0.000000e+00 0.000000e+00 0.000000e+00)) ((-1.190415e+01 5.550663e+00 7.716367e+01) (-2.639387e-01 3.468347e-02 2.744948e+00) (0.000000e+00 0.000000e+00 0.000000e+00))
4.5e-05       	((-1.324081e-02 7.918115e+00 -2.740188e-01) (-2.003866e-03 2.677924e-01 -4.931162e-03) (0.000000e+00 0.000000e+00 0.000000e+00)) ((-9.547584e+00 2.999720e+00 7.958892e+01) (-2.718373e-01 4.666659e-02 2.697574e+00) (0.000000e+00 0.000000e+00 0.000000e+00))
4.75e-05      	((2.676049e-02 8.963859e+00 4.661004e-01) (-2.074885e-03 2.658556e-01 -4.619561e-03) (0.000000e+00 0.000000e+00 0.000000e+00)) ((-3.220435e+00 -4.364694e+00 8.963739e+01) (-2.673771e-01 4.358077e-02 2.678992e+00) (0.000000e+00 0.000000e+00 0.000000e+00))
5e-05         	((7.748702e-02 9.611077e+00 9.681710e-01) (-2.106809e-03 2.658878e-01 -3.569709e-03) (0.000000e+00 0.000000e+00 0.000000e+00)) ((1.088011e+00 -9.343244e+00 9.559366e+01) (-2.574471e-01 3.307601e-02 2.679719e+00) (0.000000e+00 0.000000e+00 0.000000e+00))
5.25e-05      	((1.426293e-01 9.439886e+00 9.623553e-01) (-2.119144e-03 2.658589e-01 -2.845141e-03) (0.000000e+00 0.000000e+00 0.000000e+00)) ((1.143486e+00 -9.230880e+00 9.322573e+01) (-2.507952e-01 2.581817e-02 2.679624e+00) (0.000000e+00 0.000000e+00 0.000000e+00))
5.5e-05       	((2.119630e-01 8.825159e+00 6.577458e-01) (-2.056368e-03 2.648761e-01 -2.770208e-03) (0.000000e+00 0.000000e+00 0.000000e+00)) ((-1.316928e+00 -6.125411e+00 8.638300e+01) (-2.497272e-01 2.512347e-02 2.669241e+00) (0.000000e+00 0.000000e+00 0.000000e+00))
5.75e-05      	((2.674879e-01 8.396920e+00 4.120555e-01) (-1.943887e-03 2.632336e-01 -3.150512e-03) (0.000000e+00 0.000000e+00 0.000000e+00)) ((-3.350193e+00 -3.620606e+00 8.154307e+01) (-2.524541e-01 2.904400e-02 2.651761e+00) (0.000000e+00 0.000000e+00 0.000000e+00))
6e-05         	((3.076535e-01 8.358507e+00 3.740259e-01) (-1.762869e-03 2.616090e-01 -3.655165e-03) (0.000000e+00 0.000000e+00 0.000000e+00)) ((-3.689078e+00 -3.205494e+00 8.075390e+01) (-2.563840e-01 3.429632e-02 2.633770e+00) (0.000000e+00 0.000000e+00 0.000000e+00))
6.25e-05      	((3.387462e-01 8.541335e+00 4.838455e-01) (-1.603980e-03 2.603741e-01 -3.976421e-03) (0.000000e+00 0.000000e+00 0.000000e+00)) ((-2.776563e+00 -4.276542e+00 8.226746e+01) (-2.587759e-01 3.770138e-02 2.619900e+00) (0.000000e+00 0.000000e+00 0.000000e+00))
6.5e-05       	((3.684453e-01 8.758342e+00 6.355913e-01) (-1.502461e-03 2.596599e-01 -4.073864e-03) (0.000000e+00 0.000000e+00 0.000000e+00)) ((-1.490089e+00 -5.767767e+00 8.413675e+01) (-2.593652e-01 3.882186e-02 2.611811e+00) (0.000000e+00 0.000000e+00 0.000000e+00))
6.75e-05      	((4.019147e-01 8.871497e+00 7.397534e-01) (-1.442010e-03 2.591794e-01 -4.078337e-03) (0.000000e+00 0.000000e+00 0.000000e+00)) ((-5.840684e-01 -6.779727e+00 8.493040e+01) (-2.592571e-01 3.896166e-02 2.606467e+00) (0.000000e+00 0.000000e+00 0.000000e+00))
7e-05         	((4.393324e-01 8.857436e+00 7.694557e-01) (-1.398884e-03 2.586998e-01 -4.097904e-03) (0.000000e+00 0.000000e+00 0.000000e+00)) ((-2.970195e-01 -7.044011e+00 8.441315e+01) (-2.592996e-01 3.922784e-02 2.601300e+00) (0.000000e+00 0.000000e+00 0.000000e+00))
7.25e-05      	((4.767321e-01 8.775151e+00 7.500169e-01) (-1.335150e-03 2.580483e-01 -4.207343e-03) (0.000000e+00 0.000000e+00 0.000000e+00)) ((-4.293587e-01 -6.817936e+00 8.321451e+01) (-2.600910e-01 4.040120e-02 2.594196e+00) (0.000000e+00 0.000000e+00 0.000000e+00))
7.5e-05       	((5.086017e-01 8.699691e+00 7.220255e-01) (-1.238677e-03 2.572628e-01 -4.409331e-03) (0.000000e+00 0.000000e+00 0.000000e+00)) ((-6.484375e-01 -6.512592e+00 8.213982e+01) (-2.616809e-01 4.251995e-02 2.585411e+00) (0.000000e+00 0.000000e+00 0.000000e+00))
7.75e-05      	((5.326395e-01 8.671548e+00 7.113902e-01) (-1.123359e-03 2.563752e-01 -4.648381e-03) (0.000000e+00 0.000000e+00 0.000000e+00)) ((-7.371121e-01 -6.389548e+00 8.161663e+01) (-2.635502e-01 4.501995e-02 2.575405e+00) (0.000000e+00 0.000000e+00 0.000000e+00))
8e-05         	((5.509856e-01 8.688931e+00 7.212054e-01) (-1.006440e-03 2.555487e-01 -4.859737e-03) (0.000000e+00 0.000000e+00 0.000000e+00)) ((-6.653066e-01 -6.477749e+00 8.160511e+01) (-2.651746e-01 4.723340e-02 2.565982e+00) (0.000000e+00 0.000000e+00 0.000000e+00))
8.25e-05      	((5.655683e-01 8.726745e+00 7.438406e-01) (-9.043891e-04 2.548321e-01 -5.065597e-03) (0.000000e+00 0.000000e+00 0.000000e+00)) ((-4.859682e-01 -6.698761e+00 8.183514e+01) (-2.668338e-01 4.937677e-02 2.557793e+00) (0.000000e+00 0.000000e+00 0.000000e+00))
8.5e-05       	((5.771507e-01 8.760819e+00 7.694414e-01) (-7.767565e-04 2.543665e-01 -5.259669e-03) (0.000000e+00 0.000000e+00 0.000000e+00)) ((-2.731773e-01 -6.952658e+00 8.205753e+01) (-2.686636e-01 5.143890e-02 2.551884e+00) (0.000000e+00 0.000000e+00 0.000000e+00))
8.75e-05      	((5.860122e-01 8.780608e+00 7.901962e-01) (-6.864153e-04 2.539704e-01 -5.464268e-03) (0.000000e+00 0.000000e+00 0.000000e+00)) ((-9.364334e-02 -7.160684e+00 8.216412e+01) (-2.706563e-01 5.356215e-02 2.547036e+00) (0.000000e+00 0.000000e+00 0.000000e+00))
9e-05         	((5.925674e-01 8.788535e+00 8.038081e-01) (-6.020455e-04 2.536155e-01 -5.691704e-03) (0.000000e+00 0.000000e+00 0.000000e+00)) ((2.780835e-02 -7.298906e+00 8.217508e+01) (-2.728970e-01 5.590253e-02 2.542656e+00) (0.000000e+00 0.000000e+00 0.000000e+00))
9.25e-05      	((5.967084e-01 8.791269e+00 8.114602e-01) (-5.220038e-04 2.532883e-01 -5.939530e-03) (0.000000e+00 0.000000e+00 0.000000e+00)) ((9.622565e-02 -7.378803e+00 8.215839e+01) (-2.753501e-01 5.844309e-02 2.538594e+00) (0.000000e+00 0.000000e+00 0.000000e+00))
9.5e-05       	((5.973864e-01 8.793827e+00 8.155664e-01) (-4.459717e-04 2.530113e-01 -6.212377e-03) (0.000000e+00 0.000000e+00 0.000000e+00)) ((1.303771e-01 -7.425271e+00 8.217492e+01) (-2.780791e-01 6.123289e-02 2.535076e+00) (0.000000e+00 0.000000e+00 0.000000e+00))
9.75e-05      	((5.940595e-01 8.798048e+00 8.182340e-01) (-3.908007e-04 2.527856e-01 -6.493517e-03) (0.000000e+00 0.000000e+00 0.000000e+00)) ((1.489737e-01 -7.459889e+00 8.224865e+01) (-2.809181e-01 6.409060e-02 2.532282e+00) (0.000000e+00 0.000000e+00 0.000000e+00))
0.0001        	((5.872023e-01 8.804591e+00 8.205610e-01) (-3.601776e-04 2.525951e-01 -6.765276e-03) (0.000000e+00 0.000000e+00 0.000000e+00)) ((1.619693e-01 -7.493099e+00 8.238153e+01) (-2.836637e-01 6.683381e-02 2.530090e+00) (0.000000e+00 0.000000e+00 0.000000e+00))
0.0001025     	((5.785009e-01 8.813712e+00 8.227769e-01) (-3.629932e-04 2.524037e-01 -7.012855e-03) (0.000000e+00 0.000000e+00 0.000000e+00)) ((1.711566e-01 -7.525433e+00 8.255939e+01) (-2.861265e-01 6.930652e-02 2.528229e+00) (0.000000e+00 0.000000e+00 0.000000e+00))
0.000105      	((5.690684e-01 8.825492e+00 8.243006e-01) (-4.040284e-04 2.522332e-01 -7.241390e-03) (0.000000e+00 0.000000e+00 0.000000e+00)) ((1.707370e-01 -7.550103e+00 8.277188e+01) (-2.883909e-01 7.154732e-02 2.526963e+00) (0.000000e+00 0.000000e+00 0.000000e+00))
0.0001075     	((5.598180e-01 8.838927e+00 8.240220e-01) (-4.762225e-04 2.520639e-01 -7.452219e-03) (0.000000e+00 0.000000e+00 0.000000e+00)) ((1.509901e-01 -7.555323e+00 8.299975e+01) (-2.904570e-01 7.358074e-02 2.526025e+00) (0.000000e+00 0.000000e+00 0.000000e+00))
0.00011       	((5.514240e-01 8.852773e+00 8.218727e-01) (-5.627094e-04 2.518876e-01 -7.644543e-03) (0.000000e+00 0.000000e+00 0.000000e+00)) ((1.127316e-01 -7.539944e+00 8.322369e+01) (-2.923146e-01 7.541569e-02 2.525162e+00) (0.000000e+00 0.000000e+00 0.000000e+00))
0.0001125     	((5.443888e-01 8.865835e+00 8.186285e-01) (-6.622840e-04 2.517068e-01 -7.822267e-03) (0.000000e+00 0.000000e+00 0.000000e+00)) ((6.486714e-02 -7.511508e+00 8.342651e+01) (-2.940178e-01 7.709047e-02 2.524381e+00) (0.000000e+00 0.000000e+00 0.000000e+00))
0.000115      	((5.392240e-01 8.877567e+00 8.151970e-01) (-7.638433e-04 2.515135e-01 -7.982415e-03) (0.000000e+00 0.000000e+00 0.000000e+00)) ((1.673648e-02 -7.478879e+00 8.359735e+01) (-2.955314e-01 7.858514e-02 2.523492e+00) (0.000000e+00 0.000000e+00 0.000000e+00))
0.0001175     	((5.362541e-01 8.888083e+00 8.117133e-01) (-8.539164e-04 2.513037e-01 -8.110296e-03) (0.000000e+00 0.000000e+00 0.000000e+00)) ((-3.081513e-02 -7.443436e+00 8.373378e+01) (-2.967076e-01 7.977197e-02 2.522315e+00) (0.000000e+00 0.000000e+00 0.000000e+00))
0.00012       	((5.358722e-01 8.897568e+00 8.080190e-01) (-9.192927e-04 2.510757e-01 -8.201091e-03) (0.000000e+00 0.000000e+00 0.000000e+00)) ((-7.982975e-02 -7.403539e+00 8.383338e+01) (-2.974927e-01 8.061768e-02 2.520704e+00) (0.000000e+00 0.000000e+00 0.000000e+00))
0.0001225     	((5.381300e-01 8.906222e+00 8.040425e-01) (-9.537738e-04 2.508139e-01 -8.265121e-03) (0.000000e+00 0.000000e+00 0.000000e+00)) ((-1.313356e-01 -7.358666e+00 8.389746e+01) (-2.979696e-01 8.123356e-02 2.518442e+00) (0.000000e+00 0.000000e+00 0.000000e+00))
0.000125      	((5.429251e-01 8.914076e+00 8.001765e-01) (-9.656231e-04 2.505222e-01 -8.307758e-03) (0.000000e+00 0.000000e+00 0.000000e+00)) ((-1.814224e-01 -7.312946e+00 8.392730e+01) (-2.981904e-01 8.166028e-02 2.515654e+00) (0.000000e+00 0.000000e+00 0.000000e+00))
0.0001275     	((5.498381e-01 8.920877e+00 7.964071e-01) (-9.688246e-04 2.502226e-01 -8.328314e-03) (0.000000e+00 0.000000e+00 0.000000e+00)) ((-2.298125e-01 -7.266715e+00 8.392466e+01) (-2.981722e-01 8.187278e-02 2.512698e+00) (0.000000e+00 0.000000e+00 0.000000e+00))
0.00013       	((5.583649e-01 8.926447e+00 7.921409e-01) (-9.639266e-04 2.499284e-01 -8.328534e-03) (0.000000e+00 0.000000e+00 0.000000e+00)) ((-2.820651e-01 -7.214498e+00 8.389292e+01) (-2.979454e-01 8.188832e-02 2.509714e+00) (0.000000e+00 0.000000e+00 0.000000e+00))
0.0001325     	((5.680105e-01 8.930884e+00 7.868171e-01) (-9.514589e-04 2.496457e-01 -8.308207e-03) (0.000000e+00 0.000000e+00 0.000000e+00)) ((-3.437825e-01 -7.151065e+00 8.383823e+01) (-2.975152e-01 8.170697e-02 2.506771e+00) (0.000000e+00 0.000000e+00 0.000000e+00))
0.000135      	((5.781309e-01 8.934386e+00 7.801019e-01) (-9.362968e-04 2.493676e-01 -8.264965e-03) (0.000000e+00 0.000000e+00 0.000000e+00)) ((-4.184246e-01 -7.073534e+00 8.376926e+01) (-2.968471e-01 8.130070e-02 2.503851e+00) (0.000000e+00 0.000000e+00 0.000000e+00))
0.0001375     	((5.882554e-01 8.937152e+00 7.718900e-01) (-9.185201e-04 2.490608e-01 -8.202160e-03) (0.000000e+00 0.000000e+00 0.000000e+00)) ((-5.071901e-01 -6.981174e+00 8.369290e+01) (-2.959415e-01 8.070306e-02 2.500627e+00) (0.000000e+00 0.000000e+00 0.000000e+00))
0.00014       	((5.960959e-01 8.938456e+00 7.625812e-01) (-8.509200e-04 2.488273e-01 -8.157920e-03) (0.000000e+00 0.000000e+00 0.000000e+00)) ((-6.052706e-01 -6.880042e+00 8.362538e+01) (-2.952841e-01 8.033551e-02 2.497621e+00) (0.000000e+00 0.000000e+00 0.000000e+00))
0.0001425     	((6.023916e-01 8.938832e+00 7.522875e-01) (-8.531789e-04 2.486327e-01 -8.088283e-03) (0.000000e+00 0.000000e+00 0.000000e+00)) ((-7.121022e-01 -6.770468e+00 8.356459e+01) (-2.943968e-01 7.965098e-02 2.495712e+00) (0.000000e+00 0.000000e+00 0.000000e+00))
0.000145      	((6.079996e-01 8.938576e+00 7.413569e-01) (-8.562710e-04 2.484466e-01 -8.013520e-03) (0.000000e+00 0.000000e+00 0.000000e+00)) ((-8.244873e-01 -6.655081e+00 8.350477e+01) (-2.934567e-01 7.891706e-02 2.493899e+00) (0.000000e+00 0.000000e+00 0.000000e+00))
0.0001475     	((6.126607e-01 8.937730e+00 7.300460e-01) (-8.635664e-04 2.482868e-01 -7.943035e-03) (0.000000e+00 0.000000e+00 0.000000e+00)) ((-9.398871e-01 -6.536799e+00 8.344896e+01) (-2.925801e-01 7.822422e-02 2.492392e+00) (0.000000e+00 0.000000e+00 0.000000e+00))
0.00015       	((6.160303e-01 8.936276e+00 7.185778e-01) (-8.689576e-04 2.481443e-01 -7.880775e-03) (0.000000e+00 0.000000e+00 0.000000e+00)) ((-1.056046e+00 -6.418338e+00 8.340040e+01) (-2.918028e-01 7.761713e-02 2.491040e+00) (0.000000e+00 0.000000e+00 0.000000e+00))
0.0001525     	((6.178384e-01 8.933986e+00 7.070834e-01) (-8.722659e-04 2.480189e-01 -7.830593e-03) (0.000000e+00 0.000000e+00 0.000000e+00)) ((-1.171432e+00 -6.301433e+00 8.335945e+01) (-2.911673e-01 7.713354e-02 2.489838e+00) (0.000000e+00 0.000000e+00 0.000000e+00))
0.000155      	((6.182331e-01 8.930769e+00 6.957695e-01) (-8.735266e-04 2.479088e-01 -7.796838e-03) (0.000000e+00 0.000000e+00 0.000000e+00)) ((-1.283929e+00 -6.188114e+00 8.332358e+01) (-2.907168e-01 7.681481e-02 2.488768e+00) (0.000000e+00 0.000000e+00 0.000000e+00))
0.0001575     	((6.175781e-01 8.926343e+00 6.850421e-01) (-8.761776e-04 2.478101e-01 -7.780089e-03) (0.000000e+00 0.000000e+00 0.000000e+00)) ((-1.389166e+00 -6.082140e+00 8.328622e+01) (-2.904543e-01 7.666197e-02 2.487825e+00) (0.000000e+00 0.000000e+00 0.000000e+00))
0.00016       	((6.162563e-01 8.920580e+00 6.752062e-01) (-8.810378e-04 2.477200e-01 -7.780985e-03) (0.000000e+00 0.000000e+00 0.000000e+00)) ((-1.483925e+00 -5.986186e+00 8.324217e+01) (-2.903824e-01 7.667930e-02 2.486988e+00) (0.000000e+00 0.000000e+00 0.000000e+00))
0.0001625     	((6.145541e-01 8.913571e+00 6.665651e-01) (-8.895029e-04 2.476349e-01 -7.798745e-03) (0.000000e+00 0.000000e+00 0.000000e+00)) ((-1.565274e+00 -5.903012e+00 8.318942e+01) (-2.904892e-01 7.685764e-02 2.486235e+00) (0.000000e+00 0.000000e+00 0.000000e+00))
0.000165      	((6.125684e-01 8.905505e+00 6.593025e-01) (-9.001106e-04 2.475533e-01 -7.830653e-03) (0.000000e+00 0.000000e+00 0.000000e+00)) ((-1.631562e+00 -5.834348e+00 8.312887e+01) (-2.907434e-01 7.717130e-02 2.485536e+00) (0.000000e+00 0.000000e+00 0.000000e+00))
0.0001675     	((6.104256e-01 8.896610e+00 6.532611e-01) (-9.125008e-04 2.474701e-01 -7.874171e-03) (0.000000e+00 0.000000e+00 0.000000e+00)) ((-1.684596e+00 -5.778469e+00 8.306152e+01) (-2.911131e-01 7.759577e-02 2.484839e+00) (0.000000e+00 0.000000e+00 0.000000e+00))
0.00017       	((6.082412e-01 8.886990e+00 6.483719e-01) (-9.248823e-04 2.473864e-01 -7.930381e-03) (0.000000e+00 0.000000e+00 0.000000e+00)) ((-1.725180e+00 -5.734500e+00 8.298728e+01) (-2.916092e-01 7.814403e-02 2.484134e+00) (0.000000e+00 0.000000e+00 0.000000e+00))
0.0001725     	((6.062768e-01 8.876712e+00 6.445699e-01) (-9.415507e-04 2.472985e-01 -7.993212e-03) (0.000000e+00 0.000000e+00 0.000000e+00)) ((-1.754074e+00 -5.701438e+00 8.290421e+01) (-2.921663e-01 7.875223e-02 2.483430e+00) (0.000000e+00 0.000000e+00 0.000000e+00))
0.000175      	((6.046856e-01 8.865974e+00 6.417608e-01) (-9.629367e-04 2.472065e-01 -8.057968e-03) (0.000000e+00 0.000000e+00 0.000000e+00)) ((-1.772492e+00 -5.678082e+00 8.281281e+01) (-2.927365e-01 7.937304e-02 2.482734e+00) (0.000000e+00 0.000000e+00 0.000000e+00))
0.0001775     	((6.035773e-01 8.854870e+00 6.399295e-01) (-9.886744e-04 2.471064e-01 -8.122458e-03) (0.000000e+00 0.000000e+00 0.000000e+00)) ((-1.780692e+00 -5.664112e+00 8.271295e+01) (-2.932948e-01 7.998542e-02 2.482000e+00) (0.000000e+00 0.000000e+00 0.000000e+00))
0.00018       	((6.030509e-01 8.843524e+00 6.390386e-01) (-1.014551e-03 2.469987e-01 -8.186638e-03) (0.000000e+00 0.000000e+00 0.000000e+00)) ((-1.779181e+00 -5.659015e+00 8.260484e+01) (-2.938416e-01 8.059272e-02 2.481190e+00) (0.000000e+00 0.000000e+00 0.000000e+00))
0.0001825     	((6.032291e-01 8.832080e+00 6.390858e-01) (-1.041031e-03 2.468815e-01 -8.247936e-03) (0.000000e+00 0.000000e+00 0.000000e+00)) ((-1.768123e+00 -5.662627e+00 8.248870e+01) (-2.943507e-01 8.116880e-02 2.480292e+00) (0.000000e+00 0.000000e+00 0.000000e+00))
0.000185      	((6.041715e-01 8.820626e+00 6.401365e-01) (-1.064973e-03 2.467561e-01 -8.305241e-03) (0.000000e+00 0.000000e+00 0.000000e+00)) ((-1.746926e+00 -5.675525e+00 8.236477e+01) (-2.948127e-01 8.170488e-02 2.479285e+00) (0.000000e+00 0.000000e+00 0.000000e+00))
0.0001875     	((6.061417e-01 8.809270e+00 6.421766e-01) (-1.085627e-03 2.466125e-01 -8.356306e-03) (0.000000e+00 0.000000e+00 0.000000e+00)) ((-1.715820e+00 -5.697334e+00 8.223138e+01) (-2.951966e-01 8.217950e-02 2.478062e+00) (0.000000e+00 0.000000e+00 0.000000e+00))
0.00019       	((6.092161e-01 8.798119e+00 6.450115e-01) (-1.099148e-03 2.464564e-01 -8.403865e-03) (0.000000e+00 0.000000e+00 0.000000e+00)) ((-1.676880e+00 -5.726016e+00 8.208883e+01) (-2.955368e-01 8.262305e-02 2.476641e+00) (0.000000e+00 0.000000e+00 0.000000e+00))
0.0001925     	((6.134793e-01 8.787339e+00 6.485196e-01) (-1.107753e-03 2.462848e-01 -8.445566e-03) (0.000000e+00 0.000000e+00 0.000000e+00)) ((-1.631514e+00 -5.760227e+00 8.193789e+01) (-2.958076e-01 8.301075e-02 2.475015e+00) (0.000000e+00 0.000000e+00 0.000000e+00))
0.000195      	((6.188610e-01 8.777194e+00 6.526481e-01) (-1.110490e-03 2.461023e-01 -8.481382e-03) (0.000000e+00 0.000000e+00 0.000000e+00)) ((-1.580566e+00 -5.799446e+00 8.178192e+01) (-2.960124e-01 8.334333e-02 2.473219e+00) (0.000000e+00 0.000000e+00 0.000000e+00))
0.0001975     	((6.254930e-01 8.767964e+00 6.574453e-01) (-1.108110e-03 2.459093e-01 -8.509566e-03) (0.000000e+00 0.000000e+00 0.000000e+00)) ((-1.523894e+00 -5.843954e+00 8.162236e+01) (-2.961333e-01 8.360355e-02 2.471265e+00) (0.000000e+00 0.000000e+00 0.000000e+00))
0.0002        	((6.335900e-01 8.759896e+00 6.627255e-01) (-1.098310e-03 2.457091e-01 -8.529582e-03) (0.000000e+00 0.000000e+00 0.000000e+00)) ((-1.463655e+00 -5.891641e+00 8.145948e+01) (-2.961675e-01 8.378911e-02 2.469163e+00) (0.000000e+00 0.000000e+00 0.000000e+00))
0.0002025     	((6.431984e-01 8.752856e+00 6.683027e-01) (-1.080728e-03 2.455065e-01 -8.541299e-03) (0.000000e+00 0.000000e+00 0.000000e+00)) ((-1.401597e+00 -5.940525e+00 8.129150e+01) (-2.961178e-01 8.390005e-02 2.466956e+00) (0.000000e+00 0.000000e+00 0.000000e+00))
0.000205      	((6.543039e-01 8.746687e+00 6.738391e-01) (-1.052939e-03 2.453014e-01 -8.543298e-03) (0.000000e+00 0.000000e+00 0.000000e+00)) ((-1.340937e+00 -5.987161e+00 8.111705e+01) (-2.959683e-01 8.392507e-02 2.464620e+00) (0.000000e+00 0.000000e+00 0.000000e+00))
0.0002075     	((6.667292e-01 8.741345e+00 6.789831e-01) (-1.014168e-03 2.450919e-01 -8.534772e-03) (0.000000e+00 0.000000e+00 0.000000e+00)) ((-1.285090e+00 -6.028134e+00 8.093754e+01) (-2.957084e-01 8.385770e-02 2.462127e+00) (0.000000e+00 0.000000e+00 0.000000e+00))
0.00021       	((6.802056e-01 8.736928e+00 6.834342e-01) (-9.620043e-04 2.448841e-01 -8.515597e-03) (0.000000e+00 0.000000e+00 0.000000e+00)) ((-1.237093e+00 -6.060633e+00 8.075676e+01) (-2.953415e-01 8.369977e-02 2.459517e+00) (0.000000e+00 0.000000e+00 0.000000e+00))
0.0002125     	((6.944588e-01 8.733664e+00 6.870339e-01) (-8.967844e-04 2.446853e-01 -8.487207e-03) (0.000000e+00 0.000000e+00 0.000000e+00)) ((-1.198685e+00 -6.083312e+00 8.057980e+01) (-2.948887e-01 8.346626e-02 2.456864e+00) (0.000000e+00 0.000000e+00 0.000000e+00))
0.000215      	((7.090015e-01 8.731752e+00 6.897896e-01) (-8.205214e-04 2.445005e-01 -8.452121e-03) (0.000000e+00 0.000000e+00 0.000000e+00)) ((-1.169941e+00 -6.096734e+00 8.041362e+01) (-2.943800e-01 8.318047e-02 2.454240e+00) (0.000000e+00 0.000000e+00 0.000000e+00))
0.0002175     	((7.234451e-01 8.731207e+00 6.917624e-01) (-7.335591e-04 2.443301e-01 -8.410290e-03) (0.000000e+00 0.000000e+00 0.000000e+00)) ((-1.150229e+00 -6.101959e+00 8.026230e+01) (-2.938145e-01 8.284187e-02 2.451654e+00) (0.000000e+00 0.000000e+00 0.000000e+00))
0.00022       	((7.374820e-01 8.731831e+00 6.930372e-01) (-6.381832e-04 2.441747e-01 -8.361925e-03) (0.000000e+00 0.000000e+00 0.000000e+00)) ((-1.138476e+00 -6.100231e+00 8.012696e+01) (-2.931943e-01 8.245001e-02 2.449133e+00) (0.000000e+00 0.000000e+00 0.000000e+00))
0.0002225     	((7.508455e-01 8.733317e+00 6.936649e-01) (-5.372120e-04 2.440348e-01 -8.308122e-03) (0.000000e+00 0.000000e+00 0.000000e+00)) ((-1.133835e+00 -6.092423e+00 8.000718e+01) (-2.925305e-01 8.201292e-02 2.446711e+00) (0.000000e+00 0.000000e+00 0.000000e+00))
0.000225      	((7.632627e-01 8.735290e+00 6.936583e-01) (-4.332765e-04 2.439107e-01 -8.250746e-03) (0.000000e+00 0.000000e+00 0.000000e+00)) ((-1.135783e+00 -6.079034e+00 7.990195e+01) (-2.918423e-01 8.154612e-02 2.444418e+00) (0.000000e+00 0.000000e+00 0.000000e+00))
0.0002275     	((7.745512e-01 8.737470e+00 6.930626e-01) (-3.300175e-04 2.438019e-01 -8.190666e-03) (0.000000e+00 0.000000e+00 0.000000e+00)) ((-1.143579e+00 -6.060794e+00 7.981029e+01) (-2.911383e-01 8.105427e-02 2.442286e+00) (0.000000e+00 0.000000e+00 0.000000e+00))
0.00023       	((7.846357e-01 8.739677e+00 6.920321e-01) (-2.302757e-04 2.437049e-01 -8.130223e-03) (0.000000e+00 0.000000e+00 0.000000e+00)) ((-1.155499e+00 -6.039405e+00 7.973110e+01) (-2.904389e-01 8.055709e-02 2.440309e+00) (0.000000e+00 0.000000e+00 0.000000e+00))
0.0002325     	((7.936857e-01 8.741728e+00 6.908331e-01) (-1.240459e-04 2.436452e-01 -8.061450e-03) (0.000000e+00 0.000000e+00 0.000000e+00)) ((-1.168692e+00 -6.017424e+00 7.966078e+01) (-2.896906e-01 7.998421e-02 2.438643e+00) (0.000000e+00 0.000000e+00 0.000000e+00))
0.000235      	((8.013961e-01 8.743668e+00 6.894776e-01) (-3.602833e-05 2.435748e-01 -7.997901e-03) (0.000000e+00 0.000000e+00 0.000000e+00)) ((-1.183136e+00 -5.995322e+00 7.960284e+01) (-2.889791e-01 7.944578e-02 2.437053e+00) (0.000000e+00 0.000000e+00 0.000000e+00))
0.0002375     	((8.079576e-01 8.745463e+00 6.881423e-01) (5.302552e-05 2.435359e-01 -7.927449e-03) (0.000000e+00 0.000000e+00 0.000000e+00)) ((-1.197044e+00 -5.974703e+00 7.955499e+01) (-2.882264e-01 7.883958e-02 2.435769e+00) (0.000000e+00 0.000000e+00 0.000000e+00))
0.00024       	((8.132042e-01 8.747150e+00 6.867977e-01) (1.242703e-04 2.434873e-01 -7.863851e-03) (0.000000e+00 0.000000e+00 0.000000e+00)) ((-1.210812e+00 -5.955454e+00 7.951926e+01) (-2.875282e-01 7.828377e-02 2.434567e+00) (0.000000e+00 0.000000e+00 0.000000e+00))
0.0002425     	((8.174203e-01 8.748740e+00 6.855920e-01) (1.960933e-04 2.434634e-01 -7.794484e-03) (0.000000e+00 0.000000e+00 0.000000e+00)) ((-1.222979e+00 -5.938762e+00 7.949291e+01) (-2.867939e-01 7.766996e-02 2.433608e+00) (0.000000e+00 0.000000e+00 0.000000e+00))
0.000245      	((8.205457e-01 8.750316e+00 6.844850e-01) (2.517789e-04 2.434280e-01 -7.733526e-03) (0.000000e+00 0.000000e+00 0.000000e+00)) ((-1.234070e+00 -5.924261e+00 7.947739e+01) (-2.861288e-01 7.712340e-02 2.432697e+00) (0.000000e+00 0.000000e+00 0.000000e+00))
0.0002475     	((8.229489e-01 8.751992e+00 6.835468e-01) (3.082262e-04 2.434137e-01 -7.668649e-03) (0.000000e+00 0.000000e+00 0.000000e+00)) ((-1.243496e+00 -5.912253e+00 7.947009e+01) (-2.854430e-01 7.653717e-02 2.431989e+00) (0.000000e+00 0.000000e+00 0.000000e+00))
0.00025       	((8.246584e-01 8.753814e+00 6.827030e-01) (3.513948e-04 2.433866e-01 -7.612627e-03) (0.000000e+00 0.000000e+00 0.000000e+00)) ((-1.252092e+00 -5.901933e+00 7.947121e+01) (-2.848297e-01 7.602541e-02 2.431284e+00) (0.000000e+00 0.000000e+00 0.000000e+00))
0.0002525     	((8.260135e-01 8.755743e+00 6.819797e-01) (3.955888e-04 2.433804e-01 -7.553427e-03) (0.000000e+00 0.000000e+00 0.000000e+00)) ((-1.259567e+00 -5.893182e+00 7.947691e+01) (-2.842038e-01 7.548176e-02 2.430780e+00) (0.000000e+00 0.000000e+00 0.000000e+00))
0.000255      	((8.269035e-01 8.757787e+00 6.812427e-01) (4.262569e-04 2.433608e-01 -7.503052e-03) (0.000000e+00 0.000000e+00 0.000000e+00)) ((-1.267327e+00 -5.884724e+00 7.948846e+01) (-2.836498e-01 7.501291e-02 2.430276e+00) (0.000000e+00 0.000000e+00 0.000000e+00))
0.0002575     	((8.275309e-01 8.759859e+00 6.805232e-01) (4.590812e-04 2.433599e-01 -7.448132e-03) (0.000000e+00 0.000000e+00 0.000000e+00)) ((-1.274981e+00 -5.876619e+00 7.950295e+01) (-2.830672e-01 7.450018e-02 2.429938e+00) (0.000000e+00 0.000000e+00 0.000000e+00))
0.00026       	((8.277795e-01 8.761980e+00 6.796634e-01) (4.801937e-04 2.433460e-01 -7.401647e-03) (0.000000e+00 0.000000e+00 0.000000e+00)) ((-1.284174e+00 -5.867377e+00 7.952178e+01) (-2.825534e-01 7.406064e-02 2.429587e+00) (0.000000e+00 0.000000e+00 0.000000e+00))
0.0002625     	((8.279443e-01 8.764109e+00 6.786770e-01) (5.049177e-04 2.433502e-01 -7.349023e-03) (0.000000e+00 0.000000e+00 0.000000e+00)) ((-1.294730e+00 -5.856828e+00 7.954155e+01) (-2.819948e-01 7.356314e-02 2.429380e+00) (0.000000e+00 0.000000e+00 0.000000e+00))
0.000265      	((8.281521e-01 8.766163e+00 6.775394e-01) (5.290374e-04 2.433539e-01 -7.297328e-03) (0.000000e+00 0.000000e+00 0.000000e+00)) ((-1.306821e+00 -5.844609e+00 7.956012e+01) (-2.814438e-01 7.307459e-02 2.429174e+00) (0.000000e+00 0.000000e+00 0.000000e+00))
0.0002675     	((8.280738e-01 8.768164e+00 6.760468e-01) (5.369646e-04 2.433385e-01 -7.257240e-03) (0.000000e+00 0.000000e+00 0.000000e+00)) ((-1.322563e+00 -5.829005e+00 7.958110e+01) (-2.809889e-01 7.268615e-02 2.428938e+00) (0.000000e+00 0.000000e+00 0.000000e+00))
0.00027       	((8.279245e-01 8.770121e+00 6.742911e-01) (5.477521e-04 2.433348e-01 -7.213314e-03) (0.000000e+00 0.000000e+00 0.000000e+00)) ((-1.341020e+00 -5.810730e+00 7.960236e+01) (-2.805067e-01 7.226200e-02 2.428791e+00) (0.000000e+00 0.000000e+00 0.000000e+00))
0.0002725     	((8.278965e-01 8.772001e+00 6.723743e-01) (5.648679e-04 2.433443e-01 -7.164105e-03) (0.000000e+00 0.000000e+00 0.000000e+00)) ((-1.361106e+00 -5.790631e+00 7.962159e+01) (-2.799842e-01 7.179121e-02 2.428710e+00) (0.000000e+00 0.000000e+00 0.000000e+00))
0.000275      	((8.279023e-01 8.773749e+00 6.702974e-01) (5.777619e-04 2.433451e-01 -7.114548e-03) (0.000000e+00 0.000000e+00 0.000000e+00)) ((-1.382747e+00 -5.768825e+00 7.963914e+01) (-2.794491e-01 7.131239e-02 2.428584e+00) (0.000000e+00 0.000000e+00 0.000000e+00))