# Forces      
# CofR        : (0.000000e+00 0.000000e+00 0.000000e+00)
# Time        forces(pressure viscous porous)	moments(pressure viscous porous)
2.5e-06       	((1.965301e+00 3.118416e+01 9.857291e-01) (-1.099760e-03 7.144753e-01 1.041077e-02) (0.000000e+00 0.000000e+00 0.000000e+00)) ((-1.888703e+01 -7.811645e+00 2.916028e+02) (-6.139930e-01 -1.072496e-01 7.130315e+00) (0.000000e+00 0.000000e+00 0.000000e+00))
5e-06         	((2.428124e+00 1.294724e+02 6.727917e-01) (6.193010e-03 9.575274e-01 -2.315884e-04) (0.000000e+00 0.000000e+00 0.000000e+00)) ((-1.113964e+02 -4.872975e+00 1.267250e+03) (-8.693317e-01 5.522999e-03 9.481229e+00) (0.000000e+00 0.000000e+00 0.000000e+00))
7.5e-06       	((2.669025e+00 2.625244e+02 9.083732e+00) (1.711498e-02 1.061912e+00 -1.072895e-02) (0.000000e+00 0.000000e+00 0.000000e+00)) ((-1.570235e+02 -8.966836e+01 2.591107e+03) (-9.688483e-01 1.189108e-01 1.041550e+01) (0.000000e+00 0.000000e+00 0.000000e+00))
1e-05         	((3.469997e+00 1.776214e+02 -3.646359e-01) (1.051338e-02 9.723849e-01 -4.850162e-02) (0.000000e+00 0.000000e+00 0.000000e+00)) ((-1.612122e+02 6.257403e+00 1.736449e+03) (-1.251108e+00 4.831853e-01 9.590088e+00) (0.000000e+00 0.000000e+00 0.000000e+00))
1.25e-05      	((2.403490e+00 6.411200e+01 -8.159881e+00) (8.691094e-02 1.113770e+00 4.843883e-02) (0.000000e+00 0.000000e+00 0.000000e+00)) ((-1.269823e+02 8.390405e+01 6.157484e+02) (-4.415439e-01 -4.046280e-01 1.023721e+01) (0.000000e+00 0.000000e+00 0.000000e+00))
1.5e-05       	((4.594231e+00 2.964758e+01 -5.760417e-01) (1.317971e-01 1.058679e+00 4.254301e-02) (0.000000e+00 0.000000e+00 0.000000e+00)) ((-2.253044e+01 1.099888e+01 2.501611e+02) (-4.704256e-01 -2.975769e-01 9.238097e+00) (0.000000e+00 0.000000e+00 0.000000e+00))
1.75e-05      	((1.610710e+00 2.931102e+01 5.553400e+00) (-5.196416e-02 3.028529e-01 -2.345549e-01) (0.000000e+00 0.000000e+00 0.000000e+00)) ((3.277454e+01 -5.305281e+01 2.767638e+02) (-2.501871e+00 2.282118e+00 3.539402e+00) (0.000000e+00 0.000000e+00 0.000000e+00))
2e-05         	((-1.190725e+00 3.460182e+01 5.404040e+00) (-2.491277e-01 5.847351e-02 -2.525187e-01) (0.000000e+00 0.000000e+00 0.000000e+00)) ((2.251243e+01 -5.458474e+01 3.577068e+02) (-2.436977e+00 2.258899e+00 3.079382e+00) (0.000000e+00 0.000000e+00 0.000000e+00))
2.25e-05      	((-3.820276e+00 2.872875e+01 7.854178e-01) (-2.837037e-03 7.233066e-01 -1.748086e-02) (0.000000e+00 0.000000e+00 0.000000e+00)) ((-1.809430e+01 -1.131972e+01 3.255701e+02) (-7.558596e-01 1.648617e-01 7.244276e+00) (0.000000e+00 0.000000e+00 0.000000e+00))
2.5e-05       	((-3.892119e+00 2.158272e+01 -3.941478e+00) (2.476987e-02 7.667628e-01 4.774738e-03) (0.000000e+00 0.000000e+00 0.000000e+00)) ((-5.705150e+01 3.570940e+01 2.551641e+02) (-5.750543e-01 -2.845544e-02 7.400782e+00) (0.000000e+00 0.000000e+00 0.000000e+00))
2.75e-05      	((-3.310372e+00 1.885760e+01 -4.696381e+00) (4.882834e-02 7.756467e-01 1.658283e-02) (0.000000e+00 0.000000e+00 0.000000e+00)) ((-6.085663e+01 4.387274e+01 2.221339e+02) (-4.634348e-01 -1.217573e-01 7.248500e+00) (0.000000e+00 0.000000e+00 0.000000e+00))
3e-05         	((-1.583938e+00 2.194349e+01 -1.960173e+00) (5.747977e-02 7.819903e-01 3.727154e-02) (0.000000e+00 0.000000e+00 0.000000e+00)) ((-3.647466e+01 1.843140e+01 2.354207e+02) (-2.628717e-01 -3.193937e-01 7.226059e+00) (0.000000e+00 0.000000e+00 0.000000e+00))
3.25e-05      	((8.313148e-01 2.745762e+01 2.491811e+00) (5.378590e-02 7.633278e-01 3.297346e-02) (0.000000e+00 0.000000e+00 0.000000e+00)) ((1.929947e+00 -2.344677e+01 2.659602e+02) (-2.879754e-01 -2.804702e-01 7.076814e+00) (0.000000e+00 0.000000e+00 0.000000e+00))
3.5e-05       	((2.512439e+00 2.973794e+01 4.996877e+00) (2.623922e-02 7.138796e-01 1.200829e-02) (0.000000e+00 0.000000e+00 0.000000e+00)) ((2.401747e+01 -4.670466e+01 2.717265e+02) (-4.495004e-01 -9.959679e-02 6.859406e+00) (0.000000e+00 0.000000e+00 0.000000e+00))
3.75e-05      	((1.952404e+00 2.733491e+01 4.401520e+00) (9.008412e-03 6.832823e-01 -8.177767e-04) (0.000000e+00 0.000000e+00 0.000000e+00)) ((2.008137e+01 -4.138278e+01 2.534835e+02) (-5.491868e-01 1.067206e-02 6.727043e+00) (0.000000e+00 0.000000e+00 0.000000e+00))
4e-05         	((-2.001766e-01 2.305249e+01 2.016977e+00) (8.280146e-03 6.745480e-01 -6.434029e-03) (0.000000e+00 0.000000e+00 0.000000e+00)) ((4.605424e-01 -1.985203e+01 2.325824e+02) (-5.988207e-01 6.581892e-02 6.647399e+00) (0.000000e+00 0.000000e+00 0.000000e+00))
4.25e-05      	((-1.834714e+00 2.047278e+01 2.014643e-01) (1.036124e-02 6.695702e-01 -6.971664e-03) (0.000000e+00 0.000000e+00 0.000000e+00)) ((-1.500698e+01 -3.404991e+00 2.233703e+02) (-6.010983e-01 7.331127e-02 6.576892e+00) (0.000000e+00 0.000000e+00 0.000000e+00))
4.5e-05       	((-1.759278e+00 2.109067e+01 1.717400e-01) (1.141971e-02 6.640450e-01 -6.926016e-03) (0.000000e+00 0.000000e+00 0.000000e+00)) ((-1.582186e+01 -2.948478e+00 2.287026e+02) (-5.965853e-01 7.401523e-02 6.510898e+00) (0.000000e+00 0.000000e+00 0.000000e+00))
4.75e-05      	((-6.438909e-01 2.339826e+01 1.372759e+00) (1.255079e-02 6.609028e-01 -5.937304e-03) (0.000000e+00 0.000000e+00 0.000000e+00)) ((-6.110427e+00 -1.369555e+01 2.403478e+02) (-5.847731e-01 6.539786e-02 6.467898e+00) (0.000000e+00 0.000000e+00 0.000000e+00))
5e-05         	((2.743335e-01 2.511636e+01 2.565164e+00) (1.282187e-02 6.591826e-01 -5.230516e-03) (0.000000e+00 0.000000e+00 0.000000e+00)) ((4.019950e+00 -2.461052e+01 2.481334e+02) (-5.772653e-01 5.857293e-02 6.447876e+00) (0.000000e+00 0.000000e+00 0.000000e+00))
5.25e-05      	((3.967654e-01 2.526399e+01 3.018031e+00) (1.160983e-02 6.578737e-01 -5.290005e-03) (0.000000e+00 0.000000e+00 0.000000e+00)) ((8.295474e+00 -2.902733e+01 2.483538e+02) (-5.777033e-01 5.781633e-02 6.446968e+00) (0.000000e+00 0.000000e+00 0.000000e+00))
5.5e-05       	((-6.774106e-02 2.424907e+01 2.794984e+00) (1.005731e-02 6.564617e-01 -5.828818e-03) (0.000000e+00 0.000000e+00 0.000000e+00)) ((6.982348e+00 -2.733143e+01 2.429516e+02) (-5.829696e-01 6.147541e-02 6.448553e+00) (0.000000e+00 0.000000e+00 0.000000e+00))
5.75e-05      	((-5.736471e-01 2.310107e+01 2.369905e+00) (8.831817e-03 6.544086e-01 -6.578878e-03) (0.000000e+00 0.000000e+00 0.000000e+00)) ((3.804966e+00 -2.365071e+01 2.366454e+02) (-5.897815e-01 6.760539e-02 6.440517e+00) (0.000000e+00 0.000000e+00 0.000000e+00))
6e-05         	((-7.705855e-01 2.252717e+01 2.141555e+00) (8.243534e-03 6.522613e-01 -7.104389e-03) (0.000000e+00 0.000000e+00 0.000000e+00)) ((2.047707e+00 -2.158838e+01 2.329190e+02) (-5.940623e-01 7.220522e-02 6.425118e+00) (0.000000e+00 0.000000e+00 0.000000e+00))
6.25e-05      	((-6.515614e-01 2.258184e+01 2.197091e+00) (8.151160e-03 6.506714e-01 -7.497872e-03) (0.000000e+00 0.000000e+00 0.000000e+00)) ((2.519733e+00 -2.201274e+01 2.322426e+02) (-5.974798e-01 7.606994e-02 6.410212e+00) (0.000000e+00 0.000000e+00 0.000000e+00))
6.5e-05       	((-4.002053e-01 2.298084e+01 2.413417e+00) (8.207839e-03 6.495271e-01 -7.726488e-03) (0.000000e+00 0.000000e+00 0.000000e+00)) ((4.262057e+00 -2.389910e+01 2.336494e+02) (-5.995404e-01 7.849627e-02 6.398170e+00) (0.000000e+00 0.000000e+00 0.000000e+00))
6.75e-05      	((-1.949660e-01 2.334270e+01 2.628848e+00) (8.155803e-03 6.484232e-01 -7.939982e-03) (0.000000e+00 0.000000e+00 0.000000e+00)) ((6.031760e+00 -2.582929e+01 2.351554e+02) (-6.013501e-01 8.068883e-02 6.387629e+00) (0.000000e+00 0.000000e+00 0.000000e+00))
7e-05         	((-1.028214e-01 2.345813e+01 2.757350e+00) (7.909460e-03 6.470718e-01 -8.210774e-03) (0.000000e+00 0.000000e+00 0.000000e+00)) ((7.174658e+00 -2.701649e+01 2.353613e+02) (-6.033754e-01 8.325621e-02 6.376639e+00) (0.000000e+00 0.000000e+00 0.000000e+00))
7.25e-05      	((-9.439353e-02 2.334623e+01 2.803577e+00) (7.580067e-03 6.454257e-01 -8.589830e-03) (0.000000e+00 0.000000e+00 0.000000e+00)) ((7.718153e+00 -2.747196e+01 2.341621e+02) (-6.060897e-01 8.679307e-02 6.363626e+00) (0.000000e+00 0.000000e+00 0.000000e+00))
7.5e-05       	((-1.055603e-01 2.314951e+01 2.815956e+00) (7.187184e-03 6.440727e-01 -9.127056e-03) (0.000000e+00 0.000000e+00 0.000000e+00)) ((8.005905e+00 -2.760724e+01 2.323261e+02) (-6.107587e-01 9.179832e-02 6.354134e+00) (0.000000e+00 0.000000e+00 0.000000e+00))
7.75e-05      	((-8.446227e-02 2.300416e+01 2.835387e+00) (6.851523e-03 6.427478e-01 -9.750895e-03) (0.000000e+00 0.000000e+00 0.000000e+00)) ((8.314066e+00 -2.777313e+01 2.306824e+02) (-6.162897e-01 9.772412e-02 6.344372e+00) (0.000000e+00 0.000000e+00 0.000000e+00))
8e-05         	((-2.200909e-02 2.296538e+01 2.880272e+00) (6.599039e-03 6.415711e-01 -1.034078e-02) (0.000000e+00 0.000000e+00 0.000000e+00)) ((8.774281e+00 -2.814681e+01 2.296847e+02) (-6.215983e-01 1.033878e-01 6.335250e+00) (0.000000e+00 0.000000e+00 0.000000e+00))
8.25e-05      	((6.235237e-02 2.301038e+01 2.949479e+00) (6.456051e-03 6.405738e-01 -1.087176e-02) (0.000000e+00 0.000000e+00 0.000000e+00)) ((9.399280e+00 -2.874078e+01 2.292996e+02) (-6.264966e-01 1.085673e-01 6.326822e+00) (0.000000e+00 0.000000e+00 0.000000e+00))
8.5e-05       	((1.495629e-01 2.308601e+01 3.030929e+00) (6.675959e-03 6.395572e-01 -1.151641e-02) (0.000000e+00 0.000000e+00 0.000000e+00)) ((1.012222e+01 -2.945887e+01 2.291882e+02) (-6.326894e-01 1.150871e-01 6.314566e+00) (0.000000e+00 0.000000e+00 0.000000e+00))
8.75e-05      	((2.275492e-01 2.314857e+01 3.107795e+00) (6.402340e-03 6.390613e-01 -1.177214e-02) (0.000000e+00 0.000000e+00 0.000000e+00)) ((1.081675e+01 -3.014608e+01 2.290370e+02) (-6.351905e-01 1.175862e-01 6.312486e+00) (0.000000e+00 0.000000e+00 0.000000e+00))
9e-05         	((2.968728e-01 2.318250e+01 3.169911e+00) (6.300255e-03 6.384550e-01 -1.208473e-02) (0.000000e+00 0.000000e+00 0.000000e+00)) ((1.139435e+01 -3.069908e+01 2.286855e+02) (-6.382060e-01 1.206994e-01 6.307574e+00) (0.000000e+00 0.000000e+00 0.000000e+00))
9.25e-05      	((3.650404e-01 2.319371e+01 3.215247e+00) (6.253012e-03 6.377885e-01 -1.241841e-02) (0.000000e+00 0.000000e+00 0.000000e+00)) ((1.182714e+01 -3.108978e+01 2.281170e+02) (-6.414017e-01 1.240180e-01 6.301513e+00) (0.000000e+00 0.000000e+00 0.000000e+00))
9.5e-05       	((4.372037e-01 2.319437e+01 3.246373e+00) (6.238882e-03 6.372208e-01 -1.273965e-02) (0.000000e+00 0.000000e+00 0.000000e+00)) ((1.212746e+01 -3.133742e+01 2.274010e+02) (-6.445381e-01 1.272154e-01 6.296099e+00) (0.000000e+00 0.000000e+00 0.000000e+00))
9.75e-05      	((5.136731e-01 2.319237e+01 3.266562e+00) (6.261369e-03 6.367340e-01 -1.302211e-02) (0.000000e+00 0.000000e+00 0.000000e+00)) ((1.231884e+01 -3.147303e+01 2.266134e+02) (-6.473551e-01 1.300361e-01 6.291122e+00) (0.000000e+00 0.000000e+00 0.000000e+00))
0.0001        	((5.939003e-01 2.319137e+01 3.279069e+00) (6.349584e-03 6.363919e-01 -1.327621e-02) (0.000000e+00 0.000000e+00 0.000000e+00)) ((1.242991e+01 -3.152947e+01 2.257967e+02) (-6.500010e-01 1.326105e-01 6.286922e+00) (0.000000e+00 0.000000e+00 0.000000e+00))
0.0001025     	((6.735481e-01 2.319114e+01 3.285135e+00) (6.442485e-03 6.361522e-01 -1.347228e-02) (0.000000e+00 0.000000e+00 0.000000e+00)) ((1.247355e+01 -3.152224e+01 2.249930e+02) (-6.521430e-01 1.346084e-01 6.283699e+00) (0.000000e+00 0.000000e+00 0.000000e+00))
0.000105      	((7.491371e-01 2.319134e+01 3.285089e+00) (6.553832e-03 6.360049e-01 -1.361758e-02) (0.000000e+00 0.000000e+00 0.000000e+00)) ((1.245443e+01 -3.145716e+01 2.242348e+02) (-6.538321e-01 1.361142e-01 6.281210e+00) (0.000000e+00 0.000000e+00 0.000000e+00))
0.0001075     	((8.187626e-01 2.318997e+01 3.279483e+00) (6.664562e-03 6.358838e-01 -1.373282e-02) (0.000000e+00 0.000000e+00 0.000000e+00)) ((1.238126e+01 -3.134114e+01 2.235215e+02) (-6.552135e-01 1.373232e-01 6.278986e+00) (0.000000e+00 0.000000e+00 0.000000e+00))
0.00011       	((8.807783e-01 2.318557e+01 3.269683e+00) (6.772662e-03 6.357211e-01 -1.381539e-02) (0.000000e+00 0.000000e+00 0.000000e+00)) ((1.227011e+01 -3.118893e+01 2.228554e+02) (-6.562052e-01 1.382131e-01 6.276371e+00) (0.000000e+00 0.000000e+00 0.000000e+00))
0.0001125     	((9.353259e-01 2.317858e+01 3.257819e+00) (6.904629e-03 6.354855e-01 -1.388910e-02) (0.000000e+00 0.000000e+00 0.000000e+00)) ((1.214252e+01 -3.102183e+01 2.222394e+02) (-6.570194e-01 1.390399e-01 6.272778e+00) (0.000000e+00 0.000000e+00 0.000000e+00))
0.000115      	((9.827814e-01 2.317032e+01 3.245998e+00) (7.061935e-03 6.351626e-01 -1.396690e-02) (0.000000e+00 0.000000e+00 0.000000e+00)) ((1.201841e+01 -3.086083e+01 2.216826e+02) (-6.577808e-01 1.399348e-01 6.268047e+00) (0.000000e+00 0.000000e+00 0.000000e+00))
0.0001175     	((1.023291e+00 2.316210e+01 3.235326e+00) (7.242559e-03 6.347565e-01 -1.405802e-02) (0.000000e+00 0.000000e+00 0.000000e+00)) ((1.190725e+01 -3.071728e+01 2.211964e+02) (-6.585927e-01 1.409853e-01 6.262238e+00) (0.000000e+00 0.000000e+00 0.000000e+00))
0.00012       	((1.056971e+00 2.315430e+01 3.226467e+00) (7.437143e-03 6.342766e-01 -1.415743e-02) (0.000000e+00 0.000000e+00 0.000000e+00)) ((1.181494e+01 -3.059810e+01 2.207826e+02) (-6.594186e-01 1.421321e-01 6.255540e+00) (0.000000e+00 0.000000e+00 0.000000e+00))
0.0001225     	((1.084195e+00 2.314652e+01 3.220116e+00) (7.632677e-03 6.337402e-01 -1.426232e-02) (0.000000e+00 0.000000e+00 0.000000e+00)) ((1.174866e+01 -3.051030e+01 2.204335e+02) (-6.602527e-01 1.433341e-01 6.248257e+00) (0.000000e+00 0.000000e+00 0.000000e+00))
0.000125      	((1.105545e+00 2.313818e+01 3.216576e+00) (7.824726e-03 6.331598e-01 -1.437104e-02) (0.000000e+00 0.000000e+00 0.000000e+00)) ((1.171201e+01 -3.045670e+01 2.201370e+02) (-6.610950e-01 1.445684e-01 6.240562e+00) (0.000000e+00 0.000000e+00 0.000000e+00))
0.0001275     	((1.121726e+00 2.312929e+01 3.215896e+00) (8.008420e-03 6.325446e-01 -1.447761e-02) (0.000000e+00 0.000000e+00 0.000000e+00)) ((1.170562e+01 -3.043726e+01 2.198858e+02) (-6.618920e-01 1.457697e-01 6.232598e+00) (0.000000e+00 0.000000e+00 0.000000e+00))
0.00013       	((1.133769e+00 2.312043e+01 3.217762e+00) (8.181600e-03 6.319050e-01 -1.457854e-02) (0.000000e+00 0.000000e+00 0.000000e+00)) ((1.172578e+01 -3.044787e+01 2.196756e+02) (-6.626158e-01 1.468992e-01 6.224489e+00) (0.000000e+00 0.000000e+00 0.000000e+00))
0.0001325     	((1.142876e+00 2.311296e+01 3.221966e+00) (8.337879e-03 6.312532e-01 -1.467269e-02) (0.000000e+00 0.000000e+00 0.000000e+00)) ((1.176899e+01 -3.048507e+01 2.195077e+02) (-6.632614e-01 1.479390e-01 6.216423e+00) (0.000000e+00 0.000000e+00 0.000000e+00))
0.000135      	((1.149582e+00 2.310757e+01 3.228234e+00) (8.474030e-03 6.306052e-01 -1.475621e-02) (0.000000e+00 0.000000e+00 0.000000e+00)) ((1.183169e+01 -3.054524e+01 2.193837e+02) (-6.638001e-01 1.488498e-01 6.208593e+00) (0.000000e+00 0.000000e+00 0.000000e+00))
0.0001375     	((1.154110e+00 2.310432e+01 3.236476e+00) (8.592383e-03 6.299739e-01 -1.482661e-02) (0.000000e+00 0.000000e+00 0.000000e+00)) ((1.191273e+01 -3.062678e+01 2.193027e+02) (-6.642145e-01 1.496114e-01 6.201106e+00) (0.000000e+00 0.000000e+00 0.000000e+00))
0.00014       	((1.156051e+00 2.310281e+01 3.246263e+00) (8.692134e-03 6.293807e-01 -1.488315e-02) (0.000000e+00 0.000000e+00 0.000000e+00)) ((1.200803e+01 -3.072539e+01 2.192650e+02) (-6.645123e-01 1.502180e-01 6.194184e+00) (0.000000e+00 0.000000e+00 0.000000e+00))
0.0001425     	((1.155813e+00 2.310297e+01 3.256987e+00) (8.772216e-03 6.288224e-01 -1.492132e-02) (0.000000e+00 0.000000e+00 0.000000e+00)) ((1.211138e+01 -3.083417e+01 2.192661e+02) (-6.646419e-01 1.506257e-01 6.187807e+00) (0.000000e+00 0.000000e+00 0.000000e+00))
0.000145      	((1.153713e+00 2.310471e+01 3.268056e+00) (8.836555e-03 6.282986e-01 -1.494141e-02) (0.000000e+00 0.000000e+00 0.000000e+00)) ((1.221682e+01 -3.094675e+01 2.193020e+02) (-6.646034e-01 1.508423e-01 6.181932e+00) (0.000000e+00 0.000000e+00 0.000000e+00))
0.0001475     	((1.150337e+00 2.310796e+01 3.278925e+00) (8.880584e-03 6.278125e-01 -1.494341e-02) (0.000000e+00 0.000000e+00 0.000000e+00)) ((1.231889e+01 -3.105716e+01 2.193662e+02) (-6.643982e-01 1.508673e-01 6.176637e+00) (0.000000e+00 0.000000e+00 0.000000e+00))
0.00015       	((1.146863e+00 2.311256e+01 3.289007e+00) (8.908585e-03 6.273638e-01 -1.493220e-02) (0.000000e+00 0.000000e+00 0.000000e+00)) ((1.241187e+01 -3.115886e+01 2.194450e+02) (-6.640761e-01 1.507526e-01 6.171877e+00) (0.000000e+00 0.000000e+00 0.000000e+00))
0.0001525     	((1.143789e+00 2.311826e+01 3.297990e+00) (8.931386e-03 6.269494e-01 -1.491423e-02) (0.000000e+00 0.000000e+00 0.000000e+00)) ((1.249288e+01 -3.124868e+01 2.195309e+02) (-6.637009e-01 1.505708e-01 6.167511e+00) (0.000000e+00 0.000000e+00 0.000000e+00))
0.000155      	((1.141483e+00 2.312482e+01 3.305609e+00) (8.945800e-03 6.265717e-01 -1.488749e-02) (0.000000e+00 0.000000e+00 0.000000e+00)) ((1.255949e+01 -3.132402e+01 2.196173e+02) (-6.632533e-01 1.503002e-01 6.163595e+00) (0.000000e+00 0.000000e+00 0.000000e+00))
0.0001575     	((1.140433e+00 2.313189e+01 3.311812e+00) (8.951642e-03 6.262270e-01 -1.485845e-02) (0.000000e+00 0.000000e+00 0.000000e+00)) ((1.261152e+01 -3.138426e+01 2.196957e+02) (-6.627996e-01 1.500043e-01 6.160096e+00) (0.000000e+00 0.000000e+00 0.000000e+00))
0.00016       	((1.141091e+00 2.313903e+01 3.316633e+00) (8.952995e-03 6.259126e-01 -1.482589e-02) (0.000000e+00 0.000000e+00 0.000000e+00)) ((1.264974e+01 -3.142957e+01 2.197570e+02) (-6.623268e-01 1.496729e-01 6.156944e+00) (0.000000e+00 0.000000e+00 0.000000e+00))
0.0001625     	((1.143569e+00 2.314590e+01 3.320230e+00) (8.953315e-03 6.256272e-01 -1.478732e-02) (0.000000e+00 0.000000e+00 0.000000e+00)) ((1.267611e+01 -3.146154e+01 2.197968e+02) (-6.618080e-01 1.492840e-01 6.154089e+00) (0.000000e+00 0.000000e+00 0.000000e+00))
0.000165      	((1.147818e+00 2.315237e+01 3.322806e+00) (8.954200e-03 6.253708e-01 -1.474281e-02) (0.000000e+00 0.000000e+00 0.000000e+00)) ((1.269276e+01 -3.148224e+01 2.198146e+02) (-6.612446e-01 1.488398e-01 6.151516e+00) (0.000000e+00 0.000000e+00 0.000000e+00))
0.0001675     	((1.153581e+00 2.315846e+01 3.324489e+00) (8.959169e-03 6.251404e-01 -1.469031e-02) (0.000000e+00 0.000000e+00 0.000000e+00)) ((1.270100e+01 -3.149318e+01 2.198129e+02) (-6.606139e-01 1.483211e-01 6.149160e+00) (0.000000e+00 0.000000e+00 0.000000e+00))
0.00017       	((1.160369e+00 2.316413e+01 3.325383e+00) (8.969693e-03 6.249316e-01 -1.462951e-02) (0.000000e+00 0.000000e+00 0.000000e+00)) ((1.270184e+01 -3.149578e+01 2.197968e+02) (-6.599102e-01 1.477253e-01 6.146962e+00) (0.000000e+00 0.000000e+00 0.000000e+00))
0.0001725     	((1.167706e+00 2.316930e+01 3.325548e+00) (8.982186e-03 6.247404e-01 -1.456067e-02) (0.000000e+00 0.000000e+00 0.000000e+00)) ((1.269595e+01 -3.149095e+01 2.197703e+02) (-6.591333e-01 1.470519e-01 6.144917e+00) (0.000000e+00 0.000000e+00 0.000000e+00))
0.000175      	((1.175235e+00 2.317380e+01 3.325002e+00) (8.995883e-03 6.245662e-01 -1.448364e-02) (0.000000e+00 0.000000e+00 0.000000e+00)) ((1.268366e+01 -3.147909e+01 2.197355e+02) (-6.582809e-01 1.462983e-01 6.143031e+00) (0.000000e+00 0.000000e+00 0.000000e+00))
0.0001775     	((1.182754e+00 2.317752e+01 3.323651e+00) (9.010142e-03 6.244078e-01 -1.439804e-02) (0.000000e+00 0.000000e+00 0.000000e+00)) ((1.266410e+01 -3.145932e+01 2.196935e+02) (-6.573483e-01 1.454606e-01 6.141296e+00) (0.000000e+00 0.000000e+00 0.000000e+00))
0.00018       	((1.190142e+00 2.318045e+01 3.321366e+00) (9.025430e-03 6.242649e-01 -1.430534e-02) (0.000000e+00 0.000000e+00 0.000000e+00)) ((1.263604e+01 -3.143032e+01 2.196455e+02) (-6.563500e-01 1.445538e-01 6.139707e+00) (0.000000e+00 0.000000e+00 0.000000e+00))
0.0001825     	((1.197291e+00 2.318254e+01 3.318026e+00) (9.039548e-03 6.241345e-01 -1.420796e-02) (0.000000e+00 0.000000e+00 0.000000e+00)) ((1.259831e+01 -3.139091e+01 2.195923e+02) (-6.553082e-01 1.436008e-01 6.138256e+00) (0.000000e+00 0.000000e+00 0.000000e+00))
0.000185      	((1.204132e+00 2.318374e+01 3.313594e+00) (9.051232e-03 6.240163e-01 -1.410892e-02) (0.000000e+00 0.000000e+00 0.000000e+00)) ((1.255063e+01 -3.134074e+01 2.195339e+02) (-6.542537e-01 1.426310e-01 6.136954e+00) (0.000000e+00 0.000000e+00 0.000000e+00))
0.0001875     	((1.210797e+00 2.318402e+01 3.308060e+00) (9.063481e-03 6.239090e-01 -1.401216e-02) (0.000000e+00 0.000000e+00 0.000000e+00)) ((1.249298e+01 -3.127957e+01 2.194688e+02) (-6.532252e-01 1.416860e-01 6.135757e+00) (0.000000e+00 0.000000e+00 0.000000e+00))
0.00019       	((1.217385e+00 2.318339e+01 3.301530e+00) (9.078328e-03 6.238106e-01 -1.392019e-02) (0.000000e+00 0.000000e+00 0.000000e+00)) ((1.242643e+01 -3.120842e+01 2.193959e+02) (-6.522467e-01 1.407920e-01 6.134627e+00) (0.000000e+00 0.000000e+00 0.000000e+00))
0.0001925     	((1.223935e+00 2.318204e+01 3.294222e+00) (9.094508e-03 6.237176e-01 -1.383544e-02) (0.000000e+00 0.000000e+00 0.000000e+00)) ((1.235303e+01 -3.112949e+01 2.193167e+02) (-6.513404e-01 1.399720e-01 6.133540e+00) (0.000000e+00 0.000000e+00 0.000000e+00))
0.000195      	((1.230460e+00 2.318012e+01 3.286419e+00) (9.112155e-03 6.236299e-01 -1.375992e-02) (0.000000e+00 0.000000e+00 0.000000e+00)) ((1.227546e+01 -3.104564e+01 2.192323e+02) (-6.505268e-01 1.392461e-01 6.132493e+00) (0.000000e+00 0.000000e+00 0.000000e+00))
0.0001975     	((1.236969e+00 2.317767e+01 3.278346e+00) (9.132737e-03 6.235494e-01 -1.369412e-02) (0.000000e+00 0.000000e+00 0.000000e+00)) ((1.219590e+01 -3.095914e+01 2.191430e+02) (-6.498127e-01 1.386203e-01 6.131488e+00) (0.000000e+00 0.000000e+00 0.000000e+00))
0.0002        	((1.243578e+00 2.317469e+01 3.270216e+00) (9.158099e-03 6.234748e-01 -1.363890e-02) (0.000000e+00 0.000000e+00 0.000000e+00)) ((1.211645e+01 -3.087206e+01 2.190475e+02) (-6.492076e-01 1.381035e-01 6.130495e+00) (0.000000e+00 0.000000e+00 0.000000e+00))
0.0002025     	((1.250307e+00 2.317125e+01 3.262221e+00) (9.187054e-03 6.234045e-01 -1.359353e-02) (0.000000e+00 0.000000e+00 0.000000e+00)) ((1.203895e+01 -3.078630e+01 2.189462e+02) (-6.487032e-01 1.376872e-01 6.129508e+00) (0.000000e+00 0.000000e+00 0.000000e+00))
0.000205      	((1.257093e+00 2.316755e+01 3.254548e+00) (9.220433e-03 6.233388e-01 -1.355819e-02) (0.000000e+00 0.000000e+00 0.000000e+00)) ((1.196506e+01 -3.070379e+01 2.188415e+02) (-6.483020e-01 1.373735e-01 6.128521e+00) (0.000000e+00 0.000000e+00 0.000000e+00))
0.0002075     	((1.263839e+00 2.316380e+01 3.247313e+00) (9.257725e-03 6.232774e-01 -1.353074e-02) (0.000000e+00 0.000000e+00 0.000000e+00)) ((1.189570e+01 -3.062577e+01 2.187367e+02) (-6.479824e-01 1.371405e-01 6.127537e+00) (0.000000e+00 0.000000e+00 0.000000e+00))
0.00021       	((1.270385e+00 2.316011e+01 3.240646e+00) (9.299291e-03 6.232202e-01 -1.351022e-02) (0.000000e+00 0.000000e+00 0.000000e+00)) ((1.183204e+01 -3.055367e+01 2.186344e+02) (-6.477353e-01 1.369791e-01 6.126552e+00) (0.000000e+00 0.000000e+00 0.000000e+00))
0.0002125     	((1.276676e+00 2.315652e+01 3.234585e+00) (9.342523e-03 6.231651e-01 -1.349533e-02) (0.000000e+00 0.000000e+00 0.000000e+00)) ((1.177439e+01 -3.048790e+01 2.185355e+02) (-6.475458e-01 1.368741e-01 6.125570e+00) (0.000000e+00 0.000000e+00 0.000000e+00))
0.000215      	((1.282739e+00 2.315303e+01 3.229145e+00) (9.387198e-03 6.231122e-01 -1.348512e-02) (0.000000e+00 0.000000e+00 0.000000e+00)) ((1.172288e+01 -3.042863e+01 2.184398e+02) (-6.474050e-01 1.368160e-01 6.124593e+00) (0.000000e+00 0.000000e+00 0.000000e+00))
0.0002175     	((1.288633e+00 2.314966e+01 3.224253e+00) (9.433171e-03 6.230611e-01 -1.347758e-02) (0.000000e+00 0.000000e+00 0.000000e+00)) ((1.167675e+01 -3.037505e+01 2.183468e+02) (-6.472923e-01 1.367844e-01 6.123620e+00) (0.000000e+00 0.000000e+00 0.000000e+00))
0.00022       	((1.294375e+00 2.314645e+01 3.219854e+00) (9.481420e-03 6.230111e-01 -1.347260e-02) (0.000000e+00 0.000000e+00 0.000000e+00)) ((1.163541e+01 -3.032661e+01 2.182568e+02) (-6.472065e-01 1.367791e-01 6.122635e+00) (0.000000e+00 0.000000e+00 0.000000e+00))
0.0002225     	((1.299950e+00 2.314340e+01 3.215893e+00) (9.528968e-03 6.229595e-01 -1.346897e-02) (0.000000e+00 0.000000e+00 0.000000e+00)) ((1.159830e+01 -3.028279e+01 2.181699e+02) (-6.471334e-01 1.367855e-01 6.121639e+00) (0.000000e+00 0.000000e+00 0.000000e+00))
0.000225      	((1.305324e+00 2.314052e+01 3.212383e+00) (9.575885e-03 6.229068e-01 -1.346684e-02) (0.000000e+00 0.000000e+00 0.000000e+00)) ((1.156551e+01 -3.024374e+01 2.180866e+02) (-6.470749e-01 1.368054e-01 6.120637e+00) (0.000000e+00 0.000000e+00 0.000000e+00))
0.0002275     	((1.310541e+00 2.313779e+01 3.209243e+00) (9.622306e-03 6.228536e-01 -1.346478e-02) (0.000000e+00 0.000000e+00 0.000000e+00)) ((1.153628e+01 -3.020860e+01 2.180061e+02) (-6.470172e-01 1.368245e-01 6.119633e+00) (0.000000e+00 0.000000e+00 0.000000e+00))
0.00023       	((1.315618e+00 2.313521e+01 3.206426e+00) (9.669491e-03 6.228014e-01 -1.346308e-02) (0.000000e+00 0.000000e+00 0.000000e+00)) ((1.151012e+01 -3.017687e+01 2.179286e+02) (-6.469647e-01 1.368467e-01 6.118632e+00) (0.000000e+00 0.000000e+00 0.000000e+00))
0.0002325     	((1.320595e+00 2.313280e+01 3.203850e+00) (9.715029e-03 6.227486e-01 -1.346056e-02) (0.000000e+00 0.000000e+00 0.000000e+00)) ((1.148622e+01 -3.014769e+01 2.178536e+02) (-6.469038e-01 1.368584e-01 6.117639e+00) (0.000000e+00 0.000000e+00 0.000000e+00))
0.000235      	((1.325432e+00 2.313052e+01 3.201525e+00) (9.758936e-03 6.226960e-01 -1.345806e-02) (0.000000e+00 0.000000e+00 0.000000e+00)) ((1.146469e+01 -3.012114e+01 2.177812e+02) (-6.468437e-01 1.368684e-01 6.116665e+00) (0.000000e+00 0.000000e+00 0.000000e+00))
0.0002375     	((1.330149e+00 2.312833e+01 3.199368e+00) (9.800864e-03 6.226444e-01 -1.345391e-02) (0.000000e+00 0.000000e+00 0.000000e+00)) ((1.144478e+01 -3.009639e+01 2.177109e+02) (-6.467678e-01 1.368593e-01 6.115720e+00) (0.000000e+00 0.000000e+00 0.000000e+00))
0.00024       	((1.334734e+00 2.312621e+01 3.197378e+00) (9.842241e-03 6.225956e-01 -1.344903e-02) (0.000000e+00 0.000000e+00 0.000000e+00)) ((1.142646e+01 -3.007341e+01 2.176427e+02) (-6.466870e-01 1.368422e-01 6.114808e+00) (0.000000e+00 0.000000e+00 0.000000e+00))
0.0002425     	((1.339248e+00 2.312420e+01 3.195450e+00) (9.880526e-03 6.225481e-01 -1.344209e-02) (0.000000e+00 0.000000e+00 0.000000e+00)) ((1.140870e+01 -3.005109e+01 2.175761e+02) (-6.465862e-01 1.368013e-01 6.113940e+00) (0.000000e+00 0.000000e+00 0.000000e+00))
0.000245      	((1.343654e+00 2.312229e+01 3.193616e+00) (9.916645e-03 6.225027e-01 -1.343490e-02) (0.000000e+00 0.000000e+00 0.000000e+00)) ((1.139177e+01 -3.002979e+01 2.175117e+02) (-6.464839e-01 1.367561e-01 6.113115e+00) (0.000000e+00 0.000000e+00 0.000000e+00))
0.0002475     	((1.347981e+00 2.312050e+01 3.191791e+00) (9.950353e-03 6.224596e-01 -1.342577e-02) (0.000000e+00 0.000000e+00 0.000000e+00)) ((1.137485e+01 -3.000859e+01 2.174492e+02) (-6.463635e-01 1.366891e-01 6.112336e+00) (0.000000e+00 0.000000e+00 0.000000e+00))
0.00025       	((1.352194e+00 2.311881e+01 3.190038e+00) (9.983482e-03 6.224201e-01 -1.341654e-02) (0.000000e+00 0.000000e+00 0.000000e+00)) ((1.135857e+01 -2.998817e+01 2.173889e+02) (-6.462445e-01 1.366209e-01 6.111601e+00) (0.000000e+00 0.000000e+00 0.000000e+00))
0.0002525     	((1.356379e+00 2.311720e+01 3.188274e+00) (1.001345e-02 6.223821e-01 -1.340537e-02) (0.000000e+00 0.000000e+00 0.000000e+00)) ((1.134215e+01 -2.996763e+01 2.173297e+02) (-6.461063e-01 1.365301e-01 6.110911e+00) (0.000000e+00 0.000000e+00 0.000000e+00))
0.000255      	((1.360517e+00 2.311569e+01 3.186596e+00) (1.004203e-02 6.223466e-01 -1.339529e-02) (0.000000e+00 0.000000e+00 0.000000e+00)) ((1.132651e+01 -2.994795e+01 2.172721e+02) (-6.459804e-01 1.364497e-01 6.110262e+00) (0.000000e+00 0.000000e+00 0.000000e+00))
0.0002575     	((1.364676e+00 2.311433e+01 3.184900e+00) (1.006888e-02 6.223130e-01 -1.338391e-02) (0.000000e+00 0.000000e+00 0.000000e+00)) ((1.131059e+01 -2.992801e+01 2.172157e+02) (-6.458423e-01 1.363545e-01 6.109648e+00) (0.000000e+00 0.000000e+00 0.000000e+00))
0.00026       	((1.368746e+00 2.311313e+01 3.183302e+00) (1.009654e-02 6.222822e-01 -1.337392e-02) (0.000000e+00 0.000000e+00 0.000000e+00)) ((1.129554e+01 -2.990911e+01 2.171619e+02) (-6.457196e-01 1.362744e-01 6.109056e+00) (0.000000e+00 0.000000e+00 0.000000e+00))
0.0002625     	((1.372721e+00 2.311210e+01 3.181714e+00) (1.012142e-02 6.222512e-01 -1.336221e-02) (0.000000e+00 0.000000e+00 0.000000e+00)) ((1.128046e+01 -2.989031e+01 2.171108e+02) (-6.455787e-01 1.361746e-01 6.108489e+00) (0.000000e+00 0.000000e+00 0.000000e+00))
0.000265      	((1.376458e+00 2.311123e+01 3.180295e+00) (1.014558e-02 6.222215e-01 -1.335279e-02) (0.000000e+00 0.000000e+00 0.000000e+00)) ((1.126693e+01 -2.987337e+01 2.170637e+02) (-6.454610e-01 1.360980e-01 6.107943e+00) (0.000000e+00 0.000000e+00 0.000000e+00))
0.0002675     	((1.380027e+00 2.311052e+01 3.178913e+00) (1.016782e-02 6.221925e-01 -1.334148e-02) (0.000000e+00 0.000000e+00 0.000000e+00)) ((1.125366e+01 -2.985687e+01 2.170200e+02) (-6.453240e-01 1.360005e-01 6.107424e+00) (0.000000e+00 0.000000e+00 0.000000e+00))
0.00027       	((1.383320e+00 2.310998e+01 3.177719e+00) (1.019142e-02 6.221664e-01 -1.333239e-02) (0.000000e+00 0.000000e+00 0.000000e+00)) ((1.124212e+01 -2.984244e+01 2.169809e+02) (-6.452108e-01 1.359274e-01 6.106921e+00) (0.000000e+00 0.000000e+00 0.000000e+00))
0.0002725     	((1.386406e+00 2.310965e+01 3.176552e+00) (1.021217e-02 6.221404e-01 -1.332103e-02) (0.000000e+00 0.000000e+00 0.000000e+00)) ((1.123072e+01 -2.982836e+01 2.169459e+02) (-6.450739e-01 1.358289e-01 6.106449e+00) (0.000000e+00 0.000000e+00 0.000000e+00))
0.000275      	((1.389121e+00 2.310953e+01 3.175604e+00) (1.023251e-02 6.221166e-01 -1.331261e-02) (0.000000e+00 0.000000e+00 0.000000e+00)) ((1.122133e+01 -2.981676e+01 2.169169e+02) (-6.449675e-01 1.357608e-01 6.106002e+00) (0.000000e+00 0.000000e+00 0.000000e+00))
0.0002775     	((1.391552e+00 2.310962e+01 3.174687e+00) (1.025021e-02 6.220941e-01 -1.330170e-02) (0.000000e+00 0.000000e+00 0.000000e+00)) ((1.121208e+01 -2.980561e+01 2.168930e+02) (-6.448364e-01 1.356651e-01 6.105596e+00) (0.000000e+00 0.000000e+00 0.000000e+00))