# Forces      
# CofR        : (0.000000e+00 0.000000e+00 0.000000e+00)
# Time        forces(pressure viscous porous)	moments(pressure viscous porous)
2.5e-06       	((3.003137e-01 1.241105e+01 4.024858e-02) (1.364729e-03 4.069782e-01 -3.711736e-03) (0.000000e+00 0.000000e+00 0.000000e+00)) ((-1.030797e+01 1.232530e-01 1.211379e+02) (-4.045340e-01 3.672975e-02 4.047954e+00) (0.000000e+00 0.000000e+00 0.000000e+00))
5e-06         	((4.172899e-02 5.588344e+01 -2.190846e+00) (4.400728e-03 5.349992e-01 -7.282020e-03) (0.000000e+00 0.000000e+00 0.000000e+00)) ((-6.965875e+01 2.266306e+01 5.583142e+02) (-5.122169e-01 7.546009e-02 5.296173e+00) (0.000000e+00 0.000000e+00 0.000000e+00))
7.5e-06       	((-7.666427e+00 9.828997e+01 -6.297251e+00) (1.073711e-02 4.752814e-01 -8.756510e-03) (0.000000e+00 0.000000e+00 0.000000e+00)) ((-1.512176e+02 5.640590e+01 1.060229e+03) (-4.668635e-01 9.449310e-02 4.637535e+00) (0.000000e+00 0.000000e+00 0.000000e+00))
1e-05         	((-2.774896e+00 2.942845e+01 -1.572875e+01) (2.227774e-02 4.066873e-01 -6.813559e-03) (0.000000e+00 0.000000e+00 0.000000e+00)) ((-1.939773e+02 1.557782e+02 3.242828e+02) (-3.827237e-01 8.598108e-02 3.833459e+00) (0.000000e+00 0.000000e+00 0.000000e+00))
1.25e-05      	((1.001108e+01 8.581904e+00 -3.310678e+00) (2.644325e-02 8.419102e-01 1.654076e-01) (0.000000e+00 0.000000e+00 0.000000e+00)) ((-4.030635e+01 4.282162e+01 -1.445875e+01) (1.122332e+00 -1.629539e+00 8.124847e+00) (0.000000e+00 0.000000e+00 0.000000e+00))
1.5e-05       	((2.425525e+01 2.177237e+02 6.533156e+01) (2.442149e-02 1.109218e+00 2.446396e-01) (0.000000e+00 0.000000e+00 0.000000e+00)) ((5.463958e+02 -6.346414e+02 1.922435e+03) (1.780429e+00 -2.421030e+00 1.080873e+01) (0.000000e+00 0.000000e+00 0.000000e+00))
1.75e-05      	((4.775836e+00 1.867144e+02 4.869155e+01) (-1.488815e-02 -1.127687e+00 -7.817305e-01) (0.000000e+00 0.000000e+00 0.000000e+00)) ((3.893514e+02 -4.820532e+02 1.811258e+03) (-7.438950e+00 7.783077e+00 -1.107751e+01) (0.000000e+00 0.000000e+00 0.000000e+00))
2e-05         	((-1.766635e+00 5.747346e+01 7.933942e+00) (-4.710087e-02 -2.411342e+00 -1.066004e+00) (0.000000e+00 0.000000e+00 0.000000e+00)) ((4.217966e+01 -8.083411e+01 5.906099e+02) (-9.624666e+00 1.059629e+01 -2.353758e+01) (0.000000e+00 0.000000e+00 0.000000e+00))
2.25e-05      	((-4.802492e+00 -2.432829e+02 -6.782873e+01) (-8.338667e-02 -2.073957e+00 -9.459733e-01) (0.000000e+00 0.000000e+00 0.000000e+00)) ((-5.629950e+02 6.727431e+02 -2.372819e+03) (-8.571814e+00 9.376751e+00 -1.980083e+01) (0.000000e+00 0.000000e+00 0.000000e+00))
2.5e-05       	((1.111519e+01 -2.083615e+02 -5.946403e+01) (-1.143150e-01 4.850963e-01 1.678820e-01) (0.000000e+00 0.000000e+00 0.000000e+00)) ((-4.948045e+02 5.983310e+02 -2.186874e+03) (1.341960e+00 -1.736699e+00 5.994615e+00) (0.000000e+00 0.000000e+00 0.000000e+00))
2.75e-05      	((2.244148e+01 -7.701491e+01 -1.747114e+01) (-4.021939e-01 2.192951e+00 9.693310e-01) (0.000000e+00 0.000000e+00 0.000000e+00)) ((-1.359640e+02 1.866322e+02 -9.943276e+02) (8.545378e+00 -9.877722e+00 2.590682e+01) (0.000000e+00 0.000000e+00 0.000000e+00))
3e-05         	((1.209522e+01 6.390219e+02 1.729964e+02) (-1.732633e-02 1.247445e+00 2.728450e-01) (0.000000e+00 0.000000e+00 0.000000e+00)) ((1.412336e+03 -1.714860e+03 6.238080e+03) (2.038871e+00 -2.726861e+00 1.260650e+01) (0.000000e+00 0.000000e+00 0.000000e+00))
3.25e-05      	((-2.062896e+01 6.693055e+02 1.590282e+02) (-7.747052e-03 7.750980e-01 1.451138e-01) (0.000000e+00 0.000000e+00 0.000000e+00)) ((1.253535e+03 -1.592204e+03 6.870668e+03) (9.875538e-01 -1.450075e+00 7.811212e+00) (0.000000e+00 0.000000e+00 0.000000e+00))
3.5e-05       	((-5.775249e+01 2.841061e+02 4.889702e+01) (-1.396579e-02 1.192784e-01 -1.436304e-01) (0.000000e+00 0.000000e+00 0.000000e+00)) ((3.405647e+02 -5.172900e+02 3.416209e+03) (-1.594062e+00 1.425388e+00 1.340718e+00) (0.000000e+00 0.000000e+00 0.000000e+00))
3.75e-05      	((-5.709969e+01 -1.984546e+00 -2.823044e+01) (-8.606886e-02 -1.295344e+00 -4.422685e-01) (0.000000e+00 0.000000e+00 0.000000e+00)) ((-2.903476e+02 2.505674e+02 5.622056e+02) (-3.890708e+00 4.361760e+00 -1.201799e+01) (0.000000e+00 0.000000e+00 0.000000e+00))
4e-05         	((-2.986428e+01 -1.574467e+02 -5.882279e+01) (1.021962e-02 -7.338895e-01 -1.869666e-01) (0.000000e+00 0.000000e+00 0.000000e+00)) ((-5.163305e+02 5.697223e+02 -1.264858e+03) (-1.597519e+00 1.864930e+00 -7.409339e+00) (0.000000e+00 0.000000e+00 0.000000e+00))
4.25e-05      	((9.692898e+00 -1.659055e+02 -5.357649e+01) (-2.796063e-02 7.497164e-02 1.514291e-01) (0.000000e+00 0.000000e+00 0.000000e+00)) ((-4.575079e+02 5.388430e+02 -1.751590e+03) (1.391039e+00 -1.530954e+00 1.026841e+00) (0.000000e+00 0.000000e+00 0.000000e+00))
4.5e-05       	((3.108404e+01 -5.262874e+01 -6.797512e+00) (7.681659e-02 7.658670e-01 2.849606e-01) (0.000000e+00 0.000000e+00 0.000000e+00)) ((-4.390678e+01 8.400728e+01 -8.404206e+02) (2.388721e+00 -2.792549e+00 6.848799e+00) (0.000000e+00 0.000000e+00 0.000000e+00))
4.75e-05      	((1.970486e+01 4.938769e+01 2.975980e+01) (9.246825e-02 1.128073e+00 4.623092e-01) (0.000000e+00 0.000000e+00 0.000000e+00)) ((2.715898e+02 -2.857155e+02 2.909763e+02) (3.996614e+00 -4.550881e+00 1.030486e+01) (0.000000e+00 0.000000e+00 0.000000e+00))
5e-05         	((-1.226811e+01 8.981352e+01 3.422569e+01) (2.074868e-02 9.563919e-01 3.678175e-01) (0.000000e+00 0.000000e+00 0.000000e+00)) ((2.950086e+02 -3.470373e+02 1.018547e+03) (3.142740e+00 -3.649862e+00 9.322278e+00) (0.000000e+00 0.000000e+00 0.000000e+00))
5.25e-05      	((-2.818836e+01 6.252322e+01 1.615873e+01) (-3.412286e-02 6.321021e-01 1.349908e-01) (0.000000e+00 0.000000e+00 0.000000e+00)) ((1.266782e+02 -1.760263e+02 9.094905e+02) (9.607812e-01 -1.360805e+00 6.649630e+00) (0.000000e+00 0.000000e+00 0.000000e+00))
5.5e-05       	((-2.645418e+01 3.316280e+01 2.837189e+00) (-3.227486e-02 4.738845e-01 7.554981e-02) (0.000000e+00 0.000000e+00 0.000000e+00)) ((7.554127e+00 -4.290352e+01 5.999307e+02) (4.495327e-01 -7.674880e-01 5.057594e+00) (0.000000e+00 0.000000e+00 0.000000e+00))
5.75e-05      	((-1.154554e+01 1.250989e+01 -4.355318e+00) (-6.620018e-02 2.935929e-01 6.603197e-02) (0.000000e+00 0.000000e+00 0.000000e+00)) ((-5.346783e+01 3.682795e+01 2.422588e+02) (4.516681e-01 -6.899866e-01 3.605486e+00) (0.000000e+00 0.000000e+00 0.000000e+00))
6e-05         	((-6.322198e-01 8.720200e+00 -2.979099e+00) (-3.323136e-02 2.991959e-01 3.282656e-02) (0.000000e+00 0.000000e+00 0.000000e+00)) ((-3.689681e+01 2.925305e+01 9.316867e+01) (1.077802e-01 -3.445874e-01 3.325726e+00) (0.000000e+00 0.000000e+00 0.000000e+00))
6.25e-05      	((3.064659e+00 9.870089e+00 5.049595e-02) (5.143679e-03 3.672684e-01 3.395828e-02) (0.000000e+00 0.000000e+00 0.000000e+00)) ((-6.724776e+00 1.043978e+00 6.728308e+01) (8.151903e-02 -3.364894e-01 3.612989e+00) (0.000000e+00 0.000000e+00 0.000000e+00))
6.5e-05       	((9.613123e-02 9.194298e+00 9.626841e-01) (7.666630e-03 3.695557e-01 4.841835e-02) (0.000000e+00 0.000000e+00 0.000000e+00)) ((2.680421e+00 -9.839955e+00 9.120203e+01) (2.261565e-01 -4.795815e-01 3.609595e+00) (0.000000e+00 0.000000e+00 0.000000e+00))
6.75e-05      	((-3.904892e+00 8.269084e+00 8.492974e-01) (9.510661e-03 3.725920e-01 5.139787e-02) (0.000000e+00 0.000000e+00 0.000000e+00)) ((1.775013e+00 -1.098032e+01 1.228309e+02) (2.528782e-01 -5.096190e-01 3.621042e+00) (0.000000e+00 0.000000e+00 0.000000e+00))
7e-05         	((-5.572407e+00 8.859246e+00 5.366499e-01) (6.528197e-03 3.430674e-01 2.752841e-02) (0.000000e+00 0.000000e+00 0.000000e+00)) ((-1.926008e+00 -8.746727e+00 1.453728e+02) (2.550174e-02 -2.737173e-01 3.357344e+00) (0.000000e+00 0.000000e+00 0.000000e+00))
7.25e-05      	((-4.764094e+00 9.724678e+00 1.723849e-01) (-9.411789e-04 3.232561e-01 9.207078e-03) (0.000000e+00 0.000000e+00 0.000000e+00)) ((-6.171436e+00 -4.589715e+00 1.453876e+02) (-1.501543e-01 -9.542164e-02 3.236074e+00) (0.000000e+00 0.000000e+00 0.000000e+00))
7.5e-05       	((-3.095909e+00 1.027835e+01 1.510873e-01) (-7.426289e-03 3.148369e-01 3.704612e-03) (0.000000e+00 0.000000e+00 0.000000e+00)) ((-6.668015e+00 -3.401336e+00 1.337371e+02) (-2.015657e-01 -4.429807e-02 3.218193e+00) (0.000000e+00 0.000000e+00 0.000000e+00))
7.75e-05      	((-2.223344e+00 1.030253e+01 3.186402e-01) (-8.949544e-03 3.085714e-01 -1.895968e-04) (0.000000e+00 0.000000e+00 0.000000e+00)) ((-4.911585e+00 -4.568921e+00 1.251175e+02) (-2.379189e-01 -6.154841e-03 3.170933e+00) (0.000000e+00 0.000000e+00 0.000000e+00))
8e-05         	((-2.159619e+00 9.955715e+00 5.516383e-01) (-8.963246e-03 2.996541e-01 -4.821702e-03) (0.000000e+00 0.000000e+00 0.000000e+00)) ((-2.294925e+00 -6.854502e+00 1.211239e+02) (-2.800563e-01 4.012869e-02 3.082000e+00) (0.000000e+00 0.000000e+00 0.000000e+00))
8.25e-05      	((-2.389165e+00 9.371460e+00 6.788748e-01) (-8.038606e-03 2.957539e-01 -6.573581e-03) (0.000000e+00 0.000000e+00 0.000000e+00)) ((-6.648962e-01 -8.236192e+00 1.177363e+02) (-2.956669e-01 5.816087e-02 3.033596e+00) (0.000000e+00 0.000000e+00 0.000000e+00))
8.5e-05       	((-2.409917e+00 8.985648e+00 6.934698e-01) (-7.665264e-03 2.949821e-01 -6.548018e-03) (0.000000e+00 0.000000e+00 0.000000e+00)) ((-3.325697e-01 -8.354809e+00 1.141447e+02) (-2.948277e-01 5.813975e-02 3.022084e+00) (0.000000e+00 0.000000e+00 0.000000e+00))
8.75e-05      	((-2.180871e+00 8.870355e+00 6.350147e-01) (-7.247384e-03 2.936631e-01 -6.479642e-03) (0.000000e+00 0.000000e+00 0.000000e+00)) ((-9.130152e-01 -7.595378e+00 1.106670e+02) (-2.932954e-01 5.771449e-02 3.004698e+00) (0.000000e+00 0.000000e+00 0.000000e+00))
9e-05         	((-1.748128e+00 8.941379e+00 5.760689e-01) (-6.956555e-03 2.926462e-01 -6.739107e-03) (0.000000e+00 0.000000e+00 0.000000e+00)) ((-1.592809e+00 -6.715982e+00 1.069674e+02) (-2.952705e-01 6.049952e-02 2.991639e+00) (0.000000e+00 0.000000e+00 0.000000e+00))
9.25e-05      	((-1.322852e+00 9.077422e+00 5.645614e-01) (-6.436179e-03 2.922112e-01 -7.396400e-03) (0.000000e+00 0.000000e+00 0.000000e+00)) ((-1.805196e+00 -6.319090e+00 1.040067e+02) (-3.016517e-01 6.740271e-02 2.982060e+00) (0.000000e+00 0.000000e+00 0.000000e+00))
9.5e-05       	((-1.038008e+00 9.216250e+00 6.125304e-01) (-5.573456e-03 2.904622e-01 -7.595248e-03) (0.000000e+00 0.000000e+00 0.000000e+00)) ((-1.399640e+00 -6.602997e+00 1.025165e+02) (-3.026945e-01 6.995770e-02 2.955916e+00) (0.000000e+00 0.000000e+00 0.000000e+00))
9.75e-05      	((-8.964485e-01 9.284867e+00 6.795754e-01) (-4.825525e-03 2.893650e-01 -7.801670e-03) (0.000000e+00 0.000000e+00 0.000000e+00)) ((-7.588712e-01 -7.168555e+00 1.017911e+02) (-3.041689e-01 7.253276e-02 2.937469e+00) (0.000000e+00 0.000000e+00 0.000000e+00))
0.0001        	((-8.550430e-01 9.278406e+00 7.306482e-01) (-4.440752e-03 2.882694e-01 -7.696304e-03) (0.000000e+00 0.000000e+00 0.000000e+00)) ((-2.448620e-01 -7.641468e+00 1.013406e+02) (-3.024862e-01 7.176716e-02 2.922749e+00) (0.000000e+00 0.000000e+00 0.000000e+00))
0.0001025     	((-8.557048e-01 9.230555e+00 7.556553e-01) (-4.262680e-03 2.868420e-01 -7.604814e-03) (0.000000e+00 0.000000e+00 0.000000e+00)) ((2.164518e-02 -7.885190e+00 1.009088e+02) (-3.007712e-01 7.100860e-02 2.906857e+00) (0.000000e+00 0.000000e+00 0.000000e+00))
0.000105      	((-8.707461e-01 9.183641e+00 7.589553e-01) (-4.344391e-03 2.854555e-01 -7.375933e-03) (0.000000e+00 0.000000e+00 0.000000e+00)) ((6.541941e-02 -7.924790e+00 1.006346e+02) (-2.976833e-01 6.871517e-02 2.894035e+00) (0.000000e+00 0.000000e+00 0.000000e+00))
0.0001075     	((-8.856820e-01 9.165432e+00 7.557273e-01) (-4.427401e-03 2.842984e-01 -7.144277e-03) (0.000000e+00 0.000000e+00 0.000000e+00)) ((2.932619e-02 -7.901333e+00 1.006435e+02) (-2.947114e-01 6.638269e-02 2.883528e+00) (0.000000e+00 0.000000e+00 0.000000e+00))
0.00011       	((-8.877420e-01 9.171462e+00 7.589548e-01) (-4.420108e-03 2.833016e-01 -6.941841e-03) (0.000000e+00 0.000000e+00 0.000000e+00)) ((4.981488e-02 -7.935901e+00 1.007555e+02) (-2.921247e-01 6.439656e-02 2.873691e+00) (0.000000e+00 0.000000e+00 0.000000e+00))
0.0001125     	((-8.721492e-01 9.181060e+00 7.772833e-01) (-4.322652e-03 2.824294e-01 -6.701471e-03) (0.000000e+00 0.000000e+00 0.000000e+00)) ((2.259300e-01 -8.111906e+00 1.007131e+02) (-2.892393e-01 6.208697e-02 2.864159e+00) (0.000000e+00 0.000000e+00 0.000000e+00))
0.000115      	((-8.420220e-01 9.180356e+00 8.092956e-01) (-4.257364e-03 2.816430e-01 -6.470061e-03) (0.000000e+00 0.000000e+00 0.000000e+00)) ((5.489113e-01 -8.417239e+00 1.004107e+02) (-2.865029e-01 5.982963e-02 2.855772e+00) (0.000000e+00 0.000000e+00 0.000000e+00))
0.0001175     	((-8.052309e-01 9.166039e+00 8.453608e-01) (-4.187556e-03 2.808182e-01 -6.195917e-03) (0.000000e+00 0.000000e+00 0.000000e+00)) ((9.195641e-01 -8.760639e+00 9.989881e+01) (-2.833433e-01 5.713901e-02 2.846918e+00) (0.000000e+00 0.000000e+00 0.000000e+00))
0.00012       	((-7.678551e-01 9.141386e+00 8.777928e-01) (-4.123448e-03 2.799461e-01 -5.905552e-03) (0.000000e+00 0.000000e+00 0.000000e+00)) ((1.256317e+00 -9.069084e+00 9.927470e+01) (-2.800111e-01 5.426077e-02 2.837606e+00) (0.000000e+00 0.000000e+00 0.000000e+00))
0.0001225     	((-7.297835e-01 9.111902e+00 9.055387e-01) (-4.028150e-03 2.791319e-01 -5.687501e-03) (0.000000e+00 0.000000e+00 0.000000e+00)) ((1.546468e+00 -9.332272e+00 9.859225e+01) (-2.774794e-01 5.209852e-02 2.828521e+00) (0.000000e+00 0.000000e+00 0.000000e+00))
0.000125      	((-6.866498e-01 9.082229e+00 9.306219e-01) (-3.944172e-03 2.784004e-01 -5.531130e-03) (0.000000e+00 0.000000e+00 0.000000e+00)) ((1.809994e+00 -9.567737e+00 9.785203e+01) (-2.756693e-01 5.053344e-02 2.820357e+00) (0.000000e+00 0.000000e+00 0.000000e+00))
0.0001275     	((-6.390833e-01 9.053604e+00 9.552485e-01) (-3.832082e-03 2.777565e-01 -5.403224e-03) (0.000000e+00 0.000000e+00 0.000000e+00)) ((2.070320e+00 -9.796829e+00 9.707284e+01) (-2.742173e-01 4.926964e-02 2.812761e+00) (0.000000e+00 0.000000e+00 0.000000e+00))
0.00013       	((-5.912027e-01 9.025493e+00 9.792338e-01) (-3.730272e-03 2.771900e-01 -5.266257e-03) (0.000000e+00 0.000000e+00 0.000000e+00)) ((2.326243e+00 -1.001849e+01 9.629337e+01) (-2.727121e-01 4.790940e-02 2.806032e+00) (0.000000e+00 0.000000e+00 0.000000e+00))
0.0001325     	((-5.475061e-01 8.996931e+00 9.996052e-01) (-3.653548e-03 2.767059e-01 -5.118491e-03) (0.000000e+00 0.000000e+00 0.000000e+00)) ((2.547419e+00 -1.020423e+01 9.555252e+01) (-2.711423e-01 4.643387e-02 2.800386e+00) (0.000000e+00 0.000000e+00 0.000000e+00))
0.000135      	((-5.097037e-01 8.967508e+00 1.011246e+00) (-3.613077e-03 2.762158e-01 -4.936025e-03) (0.000000e+00 0.000000e+00 0.000000e+00)) ((2.681275e+00 -1.030253e+01 9.486589e+01) (-2.691758e-01 4.459809e-02 2.795056e+00) (0.000000e+00 0.000000e+00 0.000000e+00))
0.0001375     	((-4.777697e-01 8.937852e+00 1.010802e+00) (-3.605170e-03 2.757583e-01 -4.738987e-03) (0.000000e+00 0.000000e+00 0.000000e+00)) ((2.692756e+00 -1.027927e+01 9.424023e+01) (-2.670556e-01 4.261092e-02 2.790395e+00) (0.000000e+00 0.000000e+00 0.000000e+00))
0.00014       	((-4.506541e-01 8.907900e+00 9.986370e-01) (-3.620084e-03 2.753025e-01 -4.544756e-03) (0.000000e+00 0.000000e+00 0.000000e+00)) ((2.585678e+00 -1.013771e+01 9.366411e+01) (-2.649458e-01 4.065130e-02 2.785992e+00) (0.000000e+00 0.000000e+00 0.000000e+00))
0.0001425     	((-4.283250e-01 8.877236e+00 9.773480e-01) (-3.631818e-03 2.748495e-01 -4.368200e-03) (0.000000e+00 0.000000e+00 0.000000e+00)) ((2.387400e+00 -9.904728e+00 9.313220e+01) (-2.629894e-01 3.889046e-02 2.781596e+00) (0.000000e+00 0.000000e+00 0.000000e+00))
0.000145      	((-4.104300e-01 8.846438e+00 9.511900e-01) (-3.639535e-03 2.743954e-01 -4.219457e-03) (0.000000e+00 0.000000e+00 0.000000e+00)) ((2.140981e+00 -9.623705e+00 9.264588e+01) (-2.612948e-01 3.742371e-02 2.777156e+00) (0.000000e+00 0.000000e+00 0.000000e+00))
0.0001475     	((-3.985058e-01 8.816594e+00 9.241742e-01) (-3.635650e-03 2.739517e-01 -4.101995e-03) (0.000000e+00 0.000000e+00 0.000000e+00)) ((1.886250e+00 -9.336800e+00 9.223136e+01) (-2.599207e-01 3.629006e-02 2.772711e+00) (0.000000e+00 0.000000e+00 0.000000e+00))
0.00015       	((-3.933388e-01 8.789507e+00 8.983092e-01) (-3.620489e-03 2.734887e-01 -4.018497e-03) (0.000000e+00 0.000000e+00 0.000000e+00)) ((1.642219e+00 -9.065341e+00 9.191460e+01) (-2.588539e-01 3.550967e-02 2.767961e+00) (0.000000e+00 0.000000e+00 0.000000e+00))
0.0001525     	((-3.944487e-01 8.766279e+00 8.745327e-01) (-3.602829e-03 2.730398e-01 -3.947432e-03) (0.000000e+00 0.000000e+00 0.000000e+00)) ((1.417335e+00 -8.819193e+00 9.170144e+01) (-2.579116e-01 3.485980e-02 2.763333e+00) (0.000000e+00 0.000000e+00 0.000000e+00))
0.000155      	((-3.992491e-01 8.747275e+00 8.537293e-01) (-3.579818e-03 2.725928e-01 -3.896531e-03) (0.000000e+00 0.000000e+00 0.000000e+00)) ((1.219790e+00 -8.606131e+00 9.156858e+01) (-2.571726e-01 3.441221e-02 2.758670e+00) (0.000000e+00 0.000000e+00 0.000000e+00))
0.0001575     	((-4.046458e-01 8.731705e+00 8.360777e-01) (-3.543225e-03 2.721419e-01 -3.884308e-03) (0.000000e+00 0.000000e+00 0.000000e+00)) ((1.051697e+00 -8.426460e+00 9.147591e+01) (-2.568215e-01 3.435541e-02 2.753825e+00) (0.000000e+00 0.000000e+00 0.000000e+00))
0.00016       	((-4.075163e-01 8.718084e+00 8.223096e-01) (-3.491152e-03 2.716931e-01 -3.907666e-03) (0.000000e+00 0.000000e+00 0.000000e+00)) ((9.213964e-01 -8.285864e+00 9.137616e+01) (-2.568353e-01 3.465291e-02 2.748835e+00) (0.000000e+00 0.000000e+00 0.000000e+00))
0.0001625     	((-4.056670e-01 8.705167e+00 8.138389e-01) (-3.418063e-03 2.712684e-01 -3.956035e-03) (0.000000e+00 0.000000e+00 0.000000e+00)) ((8.439605e-01 -8.197406e+00 9.123401e+01) (-2.571334e-01 3.520483e-02 2.743864e+00) (0.000000e+00 0.000000e+00 0.000000e+00))
0.000165      	((-3.980464e-01 8.692050e+00 8.111952e-01) (-3.324712e-03 2.708354e-01 -4.039255e-03) (0.000000e+00 0.000000e+00 0.000000e+00)) ((8.254412e-01 -8.165728e+00 9.102956e+01) (-2.577728e-01 3.611051e-02 2.738595e+00) (0.000000e+00 0.000000e+00 0.000000e+00))
0.0001675     	((-3.847495e-01 8.678541e+00 8.148322e-01) (-3.215522e-03 2.704189e-01 -4.149180e-03) (0.000000e+00 0.000000e+00 0.000000e+00)) ((8.704706e-01 -8.195262e+00 9.076190e+01) (-2.586970e-01 3.728547e-02 2.733325e+00) (0.000000e+00 0.000000e+00 0.000000e+00))
0.00017       	((-3.663123e-01 8.664745e+00 8.248773e-01) (-3.092788e-03 2.700022e-01 -4.268512e-03) (0.000000e+00 0.000000e+00 0.000000e+00)) ((9.800192e-01 -8.287097e+00 9.043782e+01) (-2.597181e-01 3.855273e-02 2.727912e+00) (0.000000e+00 0.000000e+00 0.000000e+00))
0.0001725     	((-3.433684e-01 8.651334e+00 8.398021e-01) (-2.965331e-03 2.695927e-01 -4.393206e-03) (0.000000e+00 0.000000e+00 0.000000e+00)) ((1.138120e+00 -8.425768e+00 9.007054e+01) (-2.607851e-01 3.987475e-02 2.722522e+00) (0.000000e+00 0.000000e+00 0.000000e+00))
0.000175      	((-3.166885e-01 8.639063e+00 8.582226e-01) (-2.827224e-03 2.691748e-01 -4.507452e-03) (0.000000e+00 0.000000e+00 0.000000e+00)) ((1.330155e+00 -8.597407e+00 8.967548e+01) (-2.617312e-01 4.109508e-02 2.716935e+00) (0.000000e+00 0.000000e+00 0.000000e+00))
0.0001775     	((-2.867842e-01 8.628339e+00 8.791527e-01) (-2.674812e-03 2.687786e-01 -4.601899e-03) (0.000000e+00 0.000000e+00 0.000000e+00)) ((1.545751e+00 -8.792061e+00 8.926184e+01) (-2.624950e-01 4.212455e-02 2.711417e+00) (0.000000e+00 0.000000e+00 0.000000e+00))
0.00018       	((-2.546009e-01 8.619426e+00 9.011971e-01) (-2.517795e-03 2.683724e-01 -4.691133e-03) (0.000000e+00 0.000000e+00 0.000000e+00)) ((1.770705e+00 -8.996000e+00 8.884192e+01) (-2.631856e-01 4.310277e-02 2.705749e+00) (0.000000e+00 0.000000e+00 0.000000e+00))
0.0001825     	((-2.222239e-01 8.612594e+00 9.237671e-01) (-2.353227e-03 2.679799e-01 -4.755211e-03) (0.000000e+00 0.000000e+00 0.000000e+00)) ((1.998972e+00 -9.204496e+00 8.843993e+01) (-2.636310e-01 4.383399e-02 2.700138e+00) (0.000000e+00 0.000000e+00 0.000000e+00))
0.000185      	((-1.919427e-01 8.608069e+00 9.465992e-01) (-2.190462e-03 2.675982e-01 -4.798264e-03) (0.000000e+00 0.000000e+00 0.000000e+00)) ((2.227641e+00 -9.416072e+00 8.808202e+01) (-2.638745e-01 4.435155e-02 2.694652e+00) (0.000000e+00 0.000000e+00 0.000000e+00))
0.0001875     	((-1.658411e-01 8.605896e+00 9.689821e-01) (-2.036621e-03 2.672231e-01 -4.822892e-03) (0.000000e+00 0.000000e+00 0.000000e+00)) ((2.449510e+00 -9.624733e+00 8.779041e+01) (-2.639281e-01 4.468341e-02 2.689324e+00) (0.000000e+00 0.000000e+00 0.000000e+00))
0.00019       	((-1.450637e-01 8.606260e+00 9.901391e-01) (-1.898157e-03 2.668514e-01 -4.828437e-03) (0.000000e+00 0.000000e+00 0.000000e+00)) ((2.656488e+00 -9.823269e+00 8.757903e+01) (-2.637850e-01 4.481672e-02 2.684188e+00) (0.000000e+00 0.000000e+00 0.000000e+00))
0.0001925     	((-1.297736e-01 8.608729e+00 1.009463e+00) (-1.775288e-03 2.665101e-01 -4.814865e-03) (0.000000e+00 0.000000e+00 0.000000e+00)) ((2.842774e+00 -1.000570e+01 8.744549e+01) (-2.634792e-01 4.475303e-02 2.679519e+00) (0.000000e+00 0.000000e+00 0.000000e+00))
0.000195      	((-1.195928e-01 8.612538e+00 1.025868e+00) (-1.666271e-03 2.661753e-01 -4.796420e-03) (0.000000e+00 0.000000e+00 0.000000e+00)) ((2.998312e+00 -1.016102e+01 8.737835e+01) (-2.631220e-01 4.463810e-02 2.675057e+00) (0.000000e+00 0.000000e+00 0.000000e+00))
0.0001975     	((-1.142535e-01 8.617057e+00 1.039025e+00) (-1.571201e-03 2.658543e-01 -4.764862e-03) (0.000000e+00 0.000000e+00 0.000000e+00)) ((3.120486e+00 -1.028602e+01 8.736846e+01) (-2.626456e-01 4.438785e-02 2.670876e+00) (0.000000e+00 0.000000e+00 0.000000e+00))
0.0002        	((-1.137135e-01 8.622086e+00 1.049253e+00) (-1.494742e-03 2.655433e-01 -4.721589e-03) (0.000000e+00 0.000000e+00 0.000000e+00)) ((3.212691e+00 -1.038414e+01 8.741333e+01) (-2.620678e-01 4.401152e-02 2.666983e+00) (0.000000e+00 0.000000e+00 0.000000e+00))
0.0002025     	((-1.181261e-01 8.627966e+00 1.056627e+00) (-1.437895e-03 2.652111e-01 -4.671225e-03) (0.000000e+00 0.000000e+00 0.000000e+00)) ((3.275481e+00 -1.045669e+01 8.751784e+01) (-2.614093e-01 4.355833e-02 2.663073e+00) (0.000000e+00 0.000000e+00 0.000000e+00))
0.000205      	((-1.269206e-01 8.634658e+00 1.061298e+00) (-1.389483e-03 2.649077e-01 -4.606754e-03) (0.000000e+00 0.000000e+00 0.000000e+00)) ((3.310272e+00 -1.050527e+01 8.767584e+01) (-2.606403e-01 4.295888e-02 2.659545e+00) (0.000000e+00 0.000000e+00 0.000000e+00))
0.0002075     	((-1.395795e-01 8.642056e+00 1.063840e+00) (-1.354612e-03 2.646399e-01 -4.550943e-03) (0.000000e+00 0.000000e+00 0.000000e+00)) ((3.322766e+00 -1.053586e+01 8.788076e+01) (-2.600035e-01 4.243844e-02 2.656514e+00) (0.000000e+00 0.000000e+00 0.000000e+00))
0.00021       	((-1.551446e-01 8.649574e+00 1.064197e+00) (-1.336954e-03 2.643637e-01 -4.511391e-03) (0.000000e+00 0.000000e+00 0.000000e+00)) ((3.313085e+00 -1.054765e+01 8.811660e+01) (-2.595344e-01 4.206900e-02 2.653573e+00) (0.000000e+00 0.000000e+00 0.000000e+00))
0.0002125     	((-1.721612e-01 8.656354e+00 1.062603e+00) (-1.333031e-03 2.641013e-01 -4.481545e-03) (0.000000e+00 0.000000e+00 0.000000e+00)) ((3.284549e+00 -1.054229e+01 8.835964e+01) (-2.591907e-01 4.178318e-02 2.650907e+00) (0.000000e+00 0.000000e+00 0.000000e+00))
0.000215      	((-1.891762e-01 8.661700e+00 1.059709e+00) (-1.342152e-03 2.638696e-01 -4.458306e-03) (0.000000e+00 0.000000e+00 0.000000e+00)) ((3.244432e+00 -1.052536e+01 8.858784e+01) (-2.589506e-01 4.154986e-02 2.648679e+00) (0.000000e+00 0.000000e+00 0.000000e+00))
0.0002175     	((-2.050052e-01 8.665044e+00 1.055800e+00) (-1.354353e-03 2.636537e-01 -4.438097e-03) (0.000000e+00 0.000000e+00 0.000000e+00)) ((3.196277e+00 -1.049891e+01 8.878315e+01) (-2.587479e-01 4.134608e-02 2.646638e+00) (0.000000e+00 0.000000e+00 0.000000e+00))
0.00022       	((-2.186463e-01 8.666241e+00 1.051191e+00) (-1.373123e-03 2.634529e-01 -4.421717e-03) (0.000000e+00 0.000000e+00 0.000000e+00)) ((3.143384e+00 -1.046532e+01 8.893372e+01) (-2.585862e-01 4.117633e-02 2.644814e+00) (0.000000e+00 0.000000e+00 0.000000e+00))
0.0002225     	((-2.294718e-01 8.665554e+00 1.046720e+00) (-1.417275e-03 2.633387e-01 -4.408838e-03) (0.000000e+00 0.000000e+00 0.000000e+00)) ((3.093731e+00 -1.043216e+01 8.903592e+01) (-2.585557e-01 4.100680e-02 2.644104e+00) (0.000000e+00 0.000000e+00 0.000000e+00))
0.000225      	((-2.377103e-01 8.663555e+00 1.042933e+00) (-1.459293e-03 2.632343e-01 -4.395310e-03) (0.000000e+00 0.000000e+00 0.000000e+00)) ((3.052233e+00 -1.040456e+01 8.909805e+01) (-2.585121e-01 4.083627e-02 2.643471e+00) (0.000000e+00 0.000000e+00 0.000000e+00))
0.0002275     	((-2.441803e-01 8.660878e+00 1.039775e+00) (-1.500210e-03 2.631512e-01 -4.381818e-03) (0.000000e+00 0.000000e+00 0.000000e+00)) ((3.018126e+00 -1.038217e+01 8.913512e+01) (-2.584769e-01 4.066948e-02 2.643044e+00) (0.000000e+00 0.000000e+00 0.000000e+00))
0.00023       	((-2.494143e-01 8.658310e+00 1.037302e+00) (-1.544804e-03 2.631024e-01 -4.367698e-03) (0.000000e+00 0.000000e+00 0.000000e+00)) ((2.991461e+00 -1.036535e+01 8.916088e+01) (-2.584617e-01 4.049094e-02 2.642998e+00) (0.000000e+00 0.000000e+00 0.000000e+00))
0.0002325     	((-2.541008e-01 8.656283e+00 1.035112e+00) (-1.587506e-03 2.630696e-01 -4.351759e-03) (0.000000e+00 0.000000e+00 0.000000e+00)) ((2.968004e+00 -1.035011e+01 8.918698e+01) (-2.584264e-01 4.029916e-02 2.643095e+00) (0.000000e+00 0.000000e+00 0.000000e+00))
0.000235      	((-2.588548e-01 8.655100e+00 1.032847e+00) (-1.639085e-03 2.630556e-01 -4.344491e-03) (0.000000e+00 0.000000e+00 0.000000e+00)) ((2.943894e+00 -1.033307e+01 8.922287e+01) (-2.584805e-01 4.018943e-02 2.643474e+00) (0.000000e+00 0.000000e+00 0.000000e+00))
0.0002375     	((-2.640325e-01 8.655032e+00 1.030875e+00) (-1.694348e-03 2.630746e-01 -4.333763e-03) (0.000000e+00 0.000000e+00 0.000000e+00)) ((2.922497e+00 -1.031811e+01 8.927492e+01) (-2.585198e-01 4.004374e-02 2.644226e+00) (0.000000e+00 0.000000e+00 0.000000e+00))
0.00024       	((-2.696134e-01 8.656058e+00 1.029179e+00) (-1.746156e-03 2.630879e-01 -4.323159e-03) (0.000000e+00 0.000000e+00 0.000000e+00)) ((2.903691e+00 -1.030512e+01 8.934261e+01) (-2.585365e-01 3.990523e-02 2.644888e+00) (0.000000e+00 0.000000e+00 0.000000e+00))
0.0002425     	((-2.754655e-01 8.657836e+00 1.027920e+00) (-1.797885e-03 2.630997e-01 -4.313627e-03) (0.000000e+00 0.000000e+00 0.000000e+00)) ((2.889257e+00 -1.029593e+01 8.942101e+01) (-2.585542e-01 3.977797e-02 2.645537e+00) (0.000000e+00 0.000000e+00 0.000000e+00))
0.000245      	((-2.809572e-01 8.660199e+00 1.027334e+00) (-1.848148e-03 2.631221e-01 -4.299212e-03) (0.000000e+00 0.000000e+00 0.000000e+00)) ((2.881574e+00 -1.029281e+01 8.950178e+01) (-2.585239e-01 3.960286e-02 2.646279e+00) (0.000000e+00 0.000000e+00 0.000000e+00))
0.0002475     	((-2.855581e-01 8.662953e+00 1.027070e+00) (-1.886013e-03 2.631346e-01 -4.277584e-03) (0.000000e+00 0.000000e+00 0.000000e+00)) ((2.877243e+00 -1.029225e+01 8.957729e+01) (-2.583963e-01 3.936575e-02 2.646795e+00) (0.000000e+00 0.000000e+00 0.000000e+00))
0.00025       	((-2.887629e-01 8.666015e+00 1.026886e+00) (-1.924835e-03 2.631365e-01 -4.256590e-03) (0.000000e+00 0.000000e+00 0.000000e+00)) ((2.873753e+00 -1.029182e+01 8.964142e+01) (-2.582558e-01 3.913196e-02 2.647211e+00) (0.000000e+00 0.000000e+00 0.000000e+00))
0.0002525     	((-2.899530e-01 8.669121e+00 1.027110e+00) (-1.951708e-03 2.631373e-01 -4.231552e-03) (0.000000e+00 0.000000e+00 0.000000e+00)) ((2.874436e+00 -1.029462e+01 8.968514e+01) (-2.580721e-01 3.886432e-02 2.647496e+00) (0.000000e+00 0.000000e+00 0.000000e+00))
0.000255      	((-2.887100e-01 8.671867e+00 1.027684e+00) (-1.960864e-03 2.631046e-01 -4.200278e-03) (0.000000e+00 0.000000e+00 0.000000e+00)) ((2.878960e+00 -1.029998e+01 8.970008e+01) (-2.577841e-01 3.854498e-02 2.647262e+00) (0.000000e+00 0.000000e+00 0.000000e+00))
0.0002575     	((-2.849314e-01 8.674074e+00 1.028396e+00) (-1.960112e-03 2.630662e-01 -4.170832e-03) (0.000000e+00 0.000000e+00 0.000000e+00)) ((2.885189e+00 -1.030589e+01 8.968329e+01) (-2.575025e-01 3.824665e-02 2.646870e+00) (0.000000e+00 0.000000e+00 0.000000e+00))
0.00026       	((-2.785281e-01 8.675799e+00 1.029398e+00) (-1.953396e-03 2.630301e-01 -4.134314e-03) (0.000000e+00 0.000000e+00 0.000000e+00)) ((2.894444e+00 -1.031383e+01 8.963443e+01) (-2.571467e-01 3.787921e-02 2.646437e+00) (0.000000e+00 0.000000e+00 0.000000e+00))
0.0002625     	((-2.697727e-01 8.676990e+00 1.030431e+00) (-1.932088e-03 2.629840e-01 -4.090611e-03) (0.000000e+00 0.000000e+00 0.000000e+00)) ((2.904220e+00 -1.032131e+01 8.955581e+01) (-2.566943e-01 3.744952e-02 2.645754e+00) (0.000000e+00 0.000000e+00 0.000000e+00))
0.000265      	((-2.591638e-01 8.677681e+00 1.031314e+00) (-1.906421e-03 2.629333e-01 -4.047981e-03) (0.000000e+00 0.000000e+00 0.000000e+00)) ((2.912594e+00 -1.032666e+01 8.945300e+01) (-2.562383e-01 3.702895e-02 2.644978e+00) (0.000000e+00 0.000000e+00 0.000000e+00))
0.0002675     	((-2.471992e-01 8.677894e+00 1.032241e+00) (-1.869714e-03 2.629008e-01 -4.002108e-03) (0.000000e+00 0.000000e+00 0.000000e+00)) ((2.921421e+00 -1.033190e+01 8.933147e+01) (-2.557618e-01 3.658150e-02 2.644274e+00) (0.000000e+00 0.000000e+00 0.000000e+00))
0.00027       	((-2.346815e-01 8.677643e+00 1.032895e+00) (-1.823130e-03 2.628583e-01 -3.952577e-03) (0.000000e+00 0.000000e+00 0.000000e+00)) ((2.927586e+00 -1.033412e+01 8.919965e+01) (-2.552251e-01 3.610453e-02 2.643367e+00) (0.000000e+00 0.000000e+00 0.000000e+00))
0.0002725     	((-2.226742e-01 8.677175e+00 1.032995e+00) (-1.779706e-03 2.628229e-01 -3.914023e-03) (0.000000e+00 0.000000e+00 0.000000e+00)) ((2.928100e+00 -1.033096e+01 8.907101e+01) (-2.548015e-01 3.573486e-02 2.642565e+00) (0.000000e+00 0.000000e+00 0.000000e+00))
0.000275      	((-2.119370e-01 8.676795e+00 1.032787e+00) (-1.738919e-03 2.628017e-01 -3.878862e-03) (0.000000e+00 0.000000e+00 0.000000e+00)) ((2.925231e+00 -1.032505e+01 8.895653e+01) (-2.544241e-01 3.539768e-02 2.641934e+00) (0.000000e+00 0.000000e+00 0.000000e+00))