# Forces      
# CofR        : (0.000000e+00 0.000000e+00 0.000000e+00)
# Time        forces(pressure viscous porous)	moments(pressure viscous porous)
2.5e-06       	((9.761493e-01 1.544793e+01 4.875426e-01) (5.005296e-04 4.531337e-01 4.923382e-03) (0.000000e+00 0.000000e+00 0.000000e+00)) ((-9.363431e+00 -3.859687e+00 1.444272e+02) (-3.846353e-01 -5.020630e-02 4.510433e+00) (0.000000e+00 0.000000e+00 0.000000e+00))
5e-06         	((2.184945e+00 6.631280e+01 -3.244276e-01) (5.991603e-03 6.173004e-01 -1.191649e-03) (0.000000e+00 0.000000e+00 0.000000e+00)) ((-6.300754e+01 4.967446e+00 6.395534e+02) (-5.356757e-01 1.592093e-02 6.094178e+00) (0.000000e+00 0.000000e+00 0.000000e+00))
7.5e-06       	((8.452670e-03 1.288667e+02 6.220829e+00) (1.491167e-02 5.972192e-01 -5.611029e-03) (0.000000e+00 0.000000e+00 0.000000e+00)) ((-6.101980e+01 -6.281990e+01 1.284909e+03) (-5.423054e-01 6.757280e-02 5.804612e+00) (0.000000e+00 0.000000e+00 0.000000e+00))
1e-05         	((1.687315e+00 8.876093e+01 -4.424241e-01) (1.159689e-02 5.129295e-01 -3.055177e-02) (0.000000e+00 0.000000e+00 0.000000e+00)) ((-8.338528e+01 5.710302e+00 8.682867e+02) (-7.079498e-01 3.101160e-01 4.998255e+00) (0.000000e+00 0.000000e+00 0.000000e+00))
1.25e-05      	((2.426463e+00 2.780006e+01 -6.213156e+00) (3.952258e-02 5.555167e-01 9.001239e-03) (0.000000e+00 0.000000e+00 0.000000e+00)) ((-7.971044e+01 6.448823e+01 2.533065e+02) (-3.639300e-01 -5.488135e-02 5.144003e+00) (0.000000e+00 0.000000e+00 0.000000e+00))
1.5e-05       	((1.229215e+00 7.542162e+00 -3.669405e+00) (3.763698e-02 4.929766e-01 3.707051e-03) (0.000000e+00 0.000000e+00 0.000000e+00)) ((-3.711131e+01 3.809524e+01 6.328443e+01) (-3.664053e-01 -2.677607e-03 4.539866e+00) (0.000000e+00 0.000000e+00 0.000000e+00))
1.75e-05      	((-1.052087e-01 1.210506e+01 1.494194e+00) (8.144404e-03 4.333102e-01 -1.219442e-03) (0.000000e+00 0.000000e+00 0.000000e+00)) ((6.281219e+00 -1.470823e+01 1.220609e+02) (-3.654741e-01 1.679876e-02 4.240215e+00) (0.000000e+00 0.000000e+00 0.000000e+00))
2e-05         	((-1.365070e-01 1.933024e+01 3.584666e+00) (3.636986e-03 4.169299e-01 -1.094828e-03) (0.000000e+00 0.000000e+00 0.000000e+00)) ((1.794684e+01 -3.561859e+01 1.943488e+02) (-3.526520e-01 1.113017e-02 4.122573e+00) (0.000000e+00 0.000000e+00 0.000000e+00))
2.25e-05      	((1.739304e-02 1.922080e+01 2.117584e+00) (2.724613e-03 4.046160e-01 -4.618605e-03) (0.000000e+00 0.000000e+00 0.000000e+00)) ((3.144857e+00 -2.086382e+01 1.917609e+02) (-3.760152e-01 4.547697e-02 4.009426e+00) (0.000000e+00 0.000000e+00 0.000000e+00))
2.5e-05       	((-2.391198e-01 1.368926e+01 -5.034759e-01) (3.823417e-03 3.979252e-01 -6.843719e-03) (0.000000e+00 0.000000e+00 0.000000e+00)) ((-1.686631e+01 5.007352e+00 1.392910e+02) (-3.901437e-01 6.881708e-02 3.931821e+00) (0.000000e+00 0.000000e+00 0.000000e+00))
2.75e-05      	((-5.350828e-01 9.452241e+00 -1.705779e+00) (4.587379e-03 3.861096e-01 -7.864243e-03) (0.000000e+00 0.000000e+00 0.000000e+00)) ((-2.404493e+01 1.670933e+01 1.000669e+02) (-3.869085e-01 7.968719e-02 3.806575e+00) (0.000000e+00 0.000000e+00 0.000000e+00))
3e-05         	((-4.345489e-01 9.723451e+00 -8.067233e-01) (5.609061e-03 3.757487e-01 -6.540678e-03) (0.000000e+00 0.000000e+00 0.000000e+00)) ((-1.524633e+01 7.859452e+00 1.017129e+02) (-3.626284e-01 6.758706e-02 3.693086e+00) (0.000000e+00 0.000000e+00 0.000000e+00))
3.25e-05      	((-1.376626e-02 1.250596e+01 9.215263e-01) (6.412416e-03 3.749829e-01 -2.660105e-03) (0.000000e+00 0.000000e+00 0.000000e+00)) ((-1.077353e+00 -8.942769e+00 1.251394e+02) (-3.235699e-01 2.974131e-02 3.677319e+00) (0.000000e+00 0.000000e+00 0.000000e+00))
3.5e-05       	((3.115905e-01 1.428921e+01 1.911547e+00) (6.571094e-03 3.741812e-01 -1.098060e-03) (0.000000e+00 0.000000e+00 0.000000e+00)) ((6.661181e+00 -1.848954e+01 1.395948e+02) (-3.084007e-01 1.429595e-02 3.667593e+00) (0.000000e+00 0.000000e+00 0.000000e+00))
3.75e-05      	((2.865245e-01 1.365551e+01 1.692195e+00) (6.270852e-03 3.720325e-01 -9.803864e-04) (0.000000e+00 0.000000e+00 0.000000e+00)) ((4.917962e+00 -1.633480e+01 1.335368e+02) (-3.063930e-01 1.272261e-02 3.649102e+00) (0.000000e+00 0.000000e+00 0.000000e+00))
4e-05         	((1.262502e-02 1.181583e+01 8.947663e-01) (5.851640e-03 3.671603e-01 -1.967973e-03) (0.000000e+00 0.000000e+00 0.000000e+00)) ((-1.201053e+00 -8.660677e+00 1.179899e+02) (-3.125060e-01 2.200743e-02 3.604722e+00) (0.000000e+00 0.000000e+00 0.000000e+00))
4.25e-05      	((-2.488659e-01 1.062184e+01 3.861267e-01) (5.669009e-03 3.610751e-01 -3.309238e-03) (0.000000e+00 0.000000e+00 0.000000e+00)) ((-5.006261e+00 -3.839335e+00 1.087434e+02) (-3.207464e-01 3.509820e-02 3.545881e+00) (0.000000e+00 0.000000e+00 0.000000e+00))
4.5e-05       	((-3.201801e-01 1.079102e+01 4.890042e-01) (5.828729e-03 3.562124e-01 -4.185018e-03) (0.000000e+00 0.000000e+00 0.000000e+00)) ((-4.100637e+00 -4.911889e+00 1.111392e+02) (-3.254280e-01 4.396018e-02 3.495761e+00) (0.000000e+00 0.000000e+00 0.000000e+00))
4.75e-05      	((-2.294237e-01 1.169485e+01 9.229730e-01) (6.005327e-03 3.542449e-01 -4.098514e-03) (0.000000e+00 0.000000e+00 0.000000e+00)) ((-6.919811e-01 -9.124386e+00 1.192045e+02) (-3.232729e-01 4.329047e-02 3.474293e+00) (0.000000e+00 0.000000e+00 0.000000e+00))
5e-05         	((-1.168182e-01 1.234160e+01 1.271667e+00) (6.031866e-03 3.541727e-01 -3.486263e-03) (0.000000e+00 0.000000e+00 0.000000e+00)) ((2.079786e+00 -1.247746e+01 1.244874e+02) (-3.177708e-01 3.723752e-02 3.473219e+00) (0.000000e+00 0.000000e+00 0.000000e+00))
5.25e-05      	((-7.276842e-02 1.233958e+01 1.361823e+00) (5.921576e-03 3.543092e-01 -3.015833e-03) (0.000000e+00 0.000000e+00 0.000000e+00)) ((2.920425e+00 -1.333743e+01 1.240090e+02) (-3.137898e-01 3.240514e-02 3.475619e+00) (0.000000e+00 0.000000e+00 0.000000e+00))
5.5e-05       	((-1.000197e-01 1.188721e+01 1.279083e+00) (5.700424e-03 3.536892e-01 -2.925488e-03) (0.000000e+00 0.000000e+00 0.000000e+00)) ((2.505653e+00 -1.255366e+01 1.197720e+02) (-3.128933e-01 3.123528e-02 3.471636e+00) (0.000000e+00 0.000000e+00 0.000000e+00))
5.75e-05      	((-1.586950e-01 1.142418e+01 1.171641e+00) (5.338386e-03 3.523056e-01 -3.111873e-03) (0.000000e+00 0.000000e+00 0.000000e+00)) ((1.874819e+00 -1.155620e+01 1.157484e+02) (-3.140130e-01 3.270174e-02 3.461455e+00) (0.000000e+00 0.000000e+00 0.000000e+00))
6e-05         	((-1.940651e-01 1.123034e+01 1.140805e+00) (5.024693e-03 3.507054e-01 -3.433169e-03) (0.000000e+00 0.000000e+00 0.000000e+00)) ((1.749144e+00 -1.129353e+01 1.141703e+02) (-3.162101e-01 3.557500e-02 3.448647e+00) (0.000000e+00 0.000000e+00 0.000000e+00))
6.25e-05      	((-1.880503e-01 1.128394e+01 1.184954e+00) (4.818742e-03 3.493965e-01 -3.737190e-03) (0.000000e+00 0.000000e+00 0.000000e+00)) ((2.125946e+00 -1.172969e+01 1.146381e+02) (-3.184846e-01 3.840654e-02 3.437675e+00) (0.000000e+00 0.000000e+00 0.000000e+00))
6.5e-05       	((-1.520405e-01 1.144703e+01 1.260439e+00) (4.626638e-03 3.485385e-01 -3.934519e-03) (0.000000e+00 0.000000e+00 0.000000e+00)) ((2.703653e+00 -1.244384e+01 1.158932e+02) (-3.200678e-01 4.021395e-02 3.431051e+00) (0.000000e+00 0.000000e+00 0.000000e+00))
6.75e-05      	((-1.086166e-01 1.156774e+01 1.327042e+00) (4.453287e-03 3.478860e-01 -4.059312e-03) (0.000000e+00 0.000000e+00 0.000000e+00)) ((3.232748e+00 -1.306157e+01 1.166521e+02) (-3.210616e-01 4.133424e-02 3.426288e+00) (0.000000e+00 0.000000e+00 0.000000e+00))
7e-05         	((-7.295344e-02 1.158263e+01 1.370634e+00) (4.280779e-03 3.471815e-01 -4.161289e-03) (0.000000e+00 0.000000e+00 0.000000e+00)) ((3.637199e+00 -1.345918e+01 1.164376e+02) (-3.217202e-01 4.223969e-02 3.421006e+00) (0.000000e+00 0.000000e+00 0.000000e+00))
7.25e-05      	((-4.921623e-02 1.152005e+01 1.397295e+00) (4.133781e-03 3.463003e-01 -4.286346e-03) (0.000000e+00 0.000000e+00 0.000000e+00)) ((3.950208e+00 -1.370050e+01 1.155751e+02) (-3.223795e-01 4.339580e-02 3.413730e+00) (0.000000e+00 0.000000e+00 0.000000e+00))
7.5e-05       	((-3.284278e-02 1.144428e+01 1.418879e+00) (3.971035e-03 3.455769e-01 -4.552228e-03) (0.000000e+00 0.000000e+00 0.000000e+00)) ((4.226277e+00 -1.389760e+01 1.146587e+02) (-3.246480e-01 4.591901e-02 3.408158e+00) (0.000000e+00 0.000000e+00 0.000000e+00))
7.75e-05      	((-1.470163e-02 1.140160e+01 1.441938e+00) (3.808851e-03 3.448022e-01 -4.862338e-03) (0.000000e+00 0.000000e+00 0.000000e+00)) ((4.485197e+00 -1.410496e+01 1.140577e+02) (-3.272922e-01 4.888255e-02 3.402085e+00) (0.000000e+00 0.000000e+00 0.000000e+00))
8e-05         	((9.443152e-03 1.140107e+01 1.470525e+00) (3.656229e-03 3.441061e-01 -5.186167e-03) (0.000000e+00 0.000000e+00 0.000000e+00)) ((4.759214e+00 -1.436007e+01 1.138179e+02) (-3.301369e-01 5.198562e-02 3.396707e+00) (0.000000e+00 0.000000e+00 0.000000e+00))
8.25e-05      	((3.780999e-02 1.142420e+01 1.504546e+00) (3.539453e-03 3.435613e-01 -5.497665e-03) (0.000000e+00 0.000000e+00 0.000000e+00)) ((5.066261e+00 -1.466529e+01 1.137719e+02) (-3.330178e-01 5.500333e-02 3.392499e+00) (0.000000e+00 0.000000e+00 0.000000e+00))
8.5e-05       	((6.956492e-02 1.144906e+01 1.540826e+00) (3.580475e-03 3.430508e-01 -5.850692e-03) (0.000000e+00 0.000000e+00 0.000000e+00)) ((5.396944e+00 -1.499187e+01 1.137080e+02) (-3.364168e-01 5.851387e-02 3.387055e+00) (0.000000e+00 0.000000e+00 0.000000e+00))
8.75e-05      	((1.030518e-01 1.146413e+01 1.574373e+00) (3.415268e-03 3.427344e-01 -6.009841e-03) (0.000000e+00 0.000000e+00 0.000000e+00)) ((5.712045e+00 -1.529201e+01 1.135276e+02) (-3.379471e-01 6.003387e-02 3.385637e+00) (0.000000e+00 0.000000e+00 0.000000e+00))
9e-05         	((1.385257e-01 1.146993e+01 1.600986e+00) (3.338262e-03 3.424464e-01 -6.186409e-03) (0.000000e+00 0.000000e+00 0.000000e+00)) ((5.967663e+00 -1.552314e+01 1.132330e+02) (-3.396824e-01 6.176746e-02 3.383609e+00) (0.000000e+00 0.000000e+00 0.000000e+00))
9.25e-05      	((1.768642e-01 1.147203e+01 1.618698e+00) (3.296012e-03 3.421484e-01 -6.366432e-03) (0.000000e+00 0.000000e+00 0.000000e+00)) ((6.137437e+00 -1.566447e+01 1.128711e+02) (-3.414620e-01 6.354309e-02 3.381134e+00) (0.000000e+00 0.000000e+00 0.000000e+00))
9.5e-05       	((2.185218e-01 1.147469e+01 1.628512e+00) (3.281522e-03 3.419238e-01 -6.540992e-03) (0.000000e+00 0.000000e+00 0.000000e+00)) ((6.226751e+00 -1.572512e+01 1.124798e+02) (-3.432424e-01 6.527422e-02 3.379105e+00) (0.000000e+00 0.000000e+00 0.000000e+00))
9.75e-05      	((2.624595e-01 1.147819e+01 1.632425e+00) (3.287356e-03 3.417448e-01 -6.697884e-03) (0.000000e+00 0.000000e+00 0.000000e+00)) ((6.254991e+00 -1.572546e+01 1.120730e+02) (-3.448883e-01 6.683524e-02 3.377326e+00) (0.000000e+00 0.000000e+00 0.000000e+00))
0.0001        	((3.079043e-01 1.148131e+01 1.632645e+00) (3.331155e-03 3.416316e-01 -6.850937e-03) (0.000000e+00 0.000000e+00 0.000000e+00)) ((6.245616e+00 -1.568817e+01 1.116466e+02) (-3.465487e-01 6.837895e-02 3.375818e+00) (0.000000e+00 0.000000e+00 0.000000e+00))
0.0001025     	((3.524638e-01 1.148290e+01 1.630445e+00) (3.386220e-03 3.415454e-01 -6.975811e-03) (0.000000e+00 0.000000e+00 0.000000e+00)) ((6.212704e+00 -1.562767e+01 1.112137e+02) (-3.479431e-01 6.965076e-02 3.374465e+00) (0.000000e+00 0.000000e+00 0.000000e+00))
0.000105      	((3.943837e-01 1.148301e+01 1.626534e+00) (3.456449e-03 3.414794e-01 -7.075124e-03) (0.000000e+00 0.000000e+00 0.000000e+00)) ((6.163748e+00 -1.555234e+01 1.107928e+02) (-3.490836e-01 7.068104e-02 3.373158e+00) (0.000000e+00 0.000000e+00 0.000000e+00))
0.0001075     	((4.324628e-01 1.148244e+01 1.621326e+00) (3.536120e-03 3.414113e-01 -7.156330e-03) (0.000000e+00 0.000000e+00 0.000000e+00)) ((6.102578e+00 -1.546726e+01 1.104043e+02) (-3.500245e-01 7.154297e-02 3.371732e+00) (0.000000e+00 0.000000e+00 0.000000e+00))
0.00011       	((4.661067e-01 1.148176e+01 1.615419e+00) (3.627117e-03 3.413081e-01 -7.225320e-03) (0.000000e+00 0.000000e+00 0.000000e+00)) ((6.035017e+00 -1.537879e+01 1.100596e+02) (-3.507989e-01 7.229754e-02 3.369837e+00) (0.000000e+00 0.000000e+00 0.000000e+00))
0.0001125     	((4.952329e-01 1.148114e+01 1.609640e+00) (3.737670e-03 3.411623e-01 -7.290840e-03) (0.000000e+00 0.000000e+00 0.000000e+00)) ((5.969560e+00 -1.529533e+01 1.097613e+02) (-3.514905e-01 7.303732e-02 3.367311e+00) (0.000000e+00 0.000000e+00 0.000000e+00))
0.000115      	((5.198188e-01 1.148001e+01 1.604795e+00) (3.861623e-03 3.409630e-01 -7.358837e-03) (0.000000e+00 0.000000e+00 0.000000e+00)) ((5.914919e+00 -1.522511e+01 1.095039e+02) (-3.521534e-01 7.381709e-02 3.364107e+00) (0.000000e+00 0.000000e+00 0.000000e+00))
0.0001175     	((5.398946e-01 1.147786e+01 1.601372e+00) (3.994080e-03 3.407109e-01 -7.430958e-03) (0.000000e+00 0.000000e+00 0.000000e+00)) ((5.876432e+00 -1.517315e+01 1.092817e+02) (-3.528068e-01 7.464671e-02 3.360283e+00) (0.000000e+00 0.000000e+00 0.000000e+00))
0.00012       	((5.554859e-01 1.147443e+01 1.599502e+00) (4.123041e-03 3.404195e-01 -7.502737e-03) (0.000000e+00 0.000000e+00 0.000000e+00)) ((5.855502e+00 -1.514092e+01 1.090918e+02) (-3.534198e-01 7.546972e-02 3.356095e+00) (0.000000e+00 0.000000e+00 0.000000e+00))
0.0001225     	((5.666979e-01 1.146982e+01 1.598966e+00) (4.242757e-03 3.401027e-01 -7.570473e-03) (0.000000e+00 0.000000e+00 0.000000e+00)) ((5.849703e+00 -1.512628e+01 1.089339e+02) (-3.539697e-01 7.624241e-02 3.351742e+00) (0.000000e+00 0.000000e+00 0.000000e+00))
0.000125      	((5.739731e-01 1.146462e+01 1.599402e+00) (4.350472e-03 3.397688e-01 -7.630841e-03) (0.000000e+00 0.000000e+00 0.000000e+00)) ((5.854747e+00 -1.512528e+01 1.088094e+02) (-3.544300e-01 7.692842e-02 3.347335e+00) (0.000000e+00 0.000000e+00 0.000000e+00))
0.0001275     	((5.783361e-01 1.145947e+01 1.600438e+00) (4.445029e-03 3.394228e-01 -7.682886e-03) (0.000000e+00 0.000000e+00 0.000000e+00)) ((5.866209e+00 -1.513330e+01 1.087142e+02) (-3.547954e-01 7.751581e-02 3.342939e+00) (0.000000e+00 0.000000e+00 0.000000e+00))
0.00013       	((5.809499e-01 1.145489e+01 1.601911e+00) (4.526821e-03 3.390747e-01 -7.724990e-03) (0.000000e+00 0.000000e+00 0.000000e+00)) ((5.881938e+00 -1.514753e+01 1.086418e+02) (-3.550572e-01 7.798844e-02 3.338647e+00) (0.000000e+00 0.000000e+00 0.000000e+00))
0.0001325     	((5.826284e-01 1.145107e+01 1.603791e+00) (4.595083e-03 3.387357e-01 -7.757915e-03) (0.000000e+00 0.000000e+00 0.000000e+00)) ((5.901448e+00 -1.516676e+01 1.085859e+02) (-3.552318e-01 7.835413e-02 3.334580e+00) (0.000000e+00 0.000000e+00 0.000000e+00))
0.000135      	((5.839651e-01 1.144793e+01 1.606211e+00) (4.652733e-03 3.384085e-01 -7.780885e-03) (0.000000e+00 0.000000e+00 0.000000e+00)) ((5.926088e+00 -1.519150e+01 1.085400e+02) (-3.553130e-01 7.860908e-02 3.330737e+00) (0.000000e+00 0.000000e+00 0.000000e+00))
0.0001375     	((5.848951e-01 1.144515e+01 1.609147e+00) (4.702086e-03 3.380976e-01 -7.795182e-03) (0.000000e+00 0.000000e+00 0.000000e+00)) ((5.955883e+00 -1.522140e+01 1.085014e+02) (-3.553160e-01 7.876954e-02 3.327141e+00) (0.000000e+00 0.000000e+00 0.000000e+00))
0.00014       	((5.852589e-01 1.144281e+01 1.612397e+00) (4.740820e-03 3.378059e-01 -7.802835e-03) (0.000000e+00 0.000000e+00 0.000000e+00)) ((5.988657e+00 -1.525443e+01 1.084730e+02) (-3.552631e-01 7.885569e-02 3.323842e+00) (0.000000e+00 0.000000e+00 0.000000e+00))
0.0001425     	((5.852753e-01 1.144118e+01 1.615515e+00) (4.768552e-03 3.375306e-01 -7.802984e-03) (0.000000e+00 0.000000e+00 0.000000e+00)) ((6.019551e+00 -1.528589e+01 1.084554e+02) (-3.551410e-01 7.885957e-02 3.320817e+00) (0.000000e+00 0.000000e+00 0.000000e+00))
0.000145      	((5.849401e-01 1.144064e+01 1.618361e+00) (4.790999e-03 3.372701e-01 -7.797714e-03) (0.000000e+00 0.000000e+00 0.000000e+00)) ((6.046745e+00 -1.531433e+01 1.084523e+02) (-3.549681e-01 7.880725e-02 3.317992e+00) (0.000000e+00 0.000000e+00 0.000000e+00))
0.0001475     	((5.843597e-01 1.144113e+01 1.620975e+00) (4.810105e-03 3.370235e-01 -7.789654e-03) (0.000000e+00 0.000000e+00 0.000000e+00)) ((6.070677e+00 -1.534016e+01 1.084621e+02) (-3.547715e-01 7.872635e-02 3.315338e+00) (0.000000e+00 0.000000e+00 0.000000e+00))
0.00015       	((5.837638e-01 1.144251e+01 1.623429e+00) (4.826566e-03 3.367919e-01 -7.778651e-03) (0.000000e+00 0.000000e+00 0.000000e+00)) ((6.092258e+00 -1.536403e+01 1.084808e+02) (-3.545508e-01 7.861642e-02 3.312861e+00) (0.000000e+00 0.000000e+00 0.000000e+00))
0.0001525     	((5.834902e-01 1.144454e+01 1.625680e+00) (4.839509e-03 3.365785e-01 -7.764819e-03) (0.000000e+00 0.000000e+00 0.000000e+00)) ((6.111300e+00 -1.538541e+01 1.085027e+02) (-3.543097e-01 7.847849e-02 3.310599e+00) (0.000000e+00 0.000000e+00 0.000000e+00))
0.000155      	((5.837822e-01 1.144697e+01 1.627654e+00) (4.850764e-03 3.363829e-01 -7.750028e-03) (0.000000e+00 0.000000e+00 0.000000e+00)) ((6.127274e+00 -1.540353e+01 1.085227e+02) (-3.540675e-01 7.833264e-02 3.308531e+00) (0.000000e+00 0.000000e+00 0.000000e+00))
0.0001575     	((5.847374e-01 1.144961e+01 1.629315e+00) (4.861093e-03 3.362015e-01 -7.736083e-03) (0.000000e+00 0.000000e+00 0.000000e+00)) ((6.140010e+00 -1.541813e+01 1.085379e+02) (-3.538408e-01 7.819661e-02 3.306614e+00) (0.000000e+00 0.000000e+00 0.000000e+00))
0.00016       	((5.863074e-01 1.145233e+01 1.630700e+00) (4.871572e-03 3.360332e-01 -7.720916e-03) (0.000000e+00 0.000000e+00 0.000000e+00)) ((6.149964e+00 -1.542967e+01 1.085474e+02) (-3.536074e-01 7.805025e-02 3.304824e+00) (0.000000e+00 0.000000e+00 0.000000e+00))
0.0001625     	((5.884035e-01 1.145504e+01 1.631882e+00) (4.881402e-03 3.358780e-01 -7.703591e-03) (0.000000e+00 0.000000e+00 0.000000e+00)) ((6.157976e+00 -1.543897e+01 1.085513e+02) (-3.533578e-01 7.788359e-02 3.303171e+00) (0.000000e+00 0.000000e+00 0.000000e+00))
0.000165      	((5.909730e-01 1.145771e+01 1.632925e+00) (4.892491e-03 3.357335e-01 -7.682170e-03) (0.000000e+00 0.000000e+00 0.000000e+00)) ((6.164681e+00 -1.544669e+01 1.085500e+02) (-3.530700e-01 7.767849e-02 3.301611e+00) (0.000000e+00 0.000000e+00 0.000000e+00))
0.0001675     	((5.939101e-01 1.146038e+01 1.633800e+00) (4.904195e-03 3.355989e-01 -7.655569e-03) (0.000000e+00 0.000000e+00 0.000000e+00)) ((6.169768e+00 -1.545260e+01 1.085449e+02) (-3.527333e-01 7.742289e-02 3.300144e+00) (0.000000e+00 0.000000e+00 0.000000e+00))
0.00017       	((5.970337e-01 1.146304e+01 1.634461e+00) (4.916303e-03 3.354735e-01 -7.624138e-03) (0.000000e+00 0.000000e+00 0.000000e+00)) ((6.172754e+00 -1.545637e+01 1.085379e+02) (-3.523511e-01 7.711995e-02 3.298764e+00) (0.000000e+00 0.000000e+00 0.000000e+00))
0.0001725     	((6.001887e-01 1.146560e+01 1.634822e+00) (4.927163e-03 3.353565e-01 -7.586939e-03) (0.000000e+00 0.000000e+00 0.000000e+00)) ((6.172826e+00 -1.545721e+01 1.085296e+02) (-3.519136e-01 7.675841e-02 3.297481e+00) (0.000000e+00 0.000000e+00 0.000000e+00))
0.000175      	((6.032700e-01 1.146794e+01 1.634815e+00) (4.937543e-03 3.352494e-01 -7.544305e-03) (0.000000e+00 0.000000e+00 0.000000e+00)) ((6.169411e+00 -1.545450e+01 1.085203e+02) (-3.514257e-01 7.634275e-02 3.296302e+00) (0.000000e+00 0.000000e+00 0.000000e+00))
0.0001775     	((6.063118e-01 1.146998e+01 1.634352e+00) (4.946883e-03 3.351519e-01 -7.496933e-03) (0.000000e+00 0.000000e+00 0.000000e+00)) ((6.161713e+00 -1.544726e+01 1.085085e+02) (-3.508945e-01 7.587951e-02 3.295231e+00) (0.000000e+00 0.000000e+00 0.000000e+00))
0.00018       	((6.093618e-01 1.147166e+01 1.633337e+00) (4.954858e-03 3.350627e-01 -7.446416e-03) (0.000000e+00 0.000000e+00 0.000000e+00)) ((6.148851e+00 -1.543447e+01 1.084934e+02) (-3.503349e-01 7.538439e-02 3.294257e+00) (0.000000e+00 0.000000e+00 0.000000e+00))
0.0001825     	((6.124580e-01 1.147296e+01 1.631664e+00) (4.960875e-03 3.349808e-01 -7.393710e-03) (0.000000e+00 0.000000e+00 0.000000e+00)) ((6.129771e+00 -1.541498e+01 1.084744e+02) (-3.497556e-01 7.486657e-02 3.293378e+00) (0.000000e+00 0.000000e+00 0.000000e+00))
0.000185      	((6.156169e-01 1.147389e+01 1.629301e+00) (4.965760e-03 3.349063e-01 -7.340828e-03) (0.000000e+00 0.000000e+00 0.000000e+00)) ((6.104194e+00 -1.538848e+01 1.084512e+02) (-3.491772e-01 7.434704e-02 3.292586e+00) (0.000000e+00 0.000000e+00 0.000000e+00))
0.0001875     	((6.188621e-01 1.147441e+01 1.626281e+00) (4.970795e-03 3.348392e-01 -7.289357e-03) (0.000000e+00 0.000000e+00 0.000000e+00)) ((6.072484e+00 -1.535529e+01 1.084235e+02) (-3.486164e-01 7.384257e-02 3.291867e+00) (0.000000e+00 0.000000e+00 0.000000e+00))
0.00019       	((6.222276e-01 1.147453e+01 1.622716e+00) (4.976778e-03 3.347793e-01 -7.241084e-03) (0.000000e+00 0.000000e+00 0.000000e+00)) ((6.035794e+00 -1.531653e+01 1.083907e+02) (-3.480913e-01 7.337148e-02 3.291212e+00) (0.000000e+00 0.000000e+00 0.000000e+00))
0.0001925     	((6.257537e-01 1.147426e+01 1.618740e+00) (4.984268e-03 3.347256e-01 -7.196714e-03) (0.000000e+00 0.000000e+00 0.000000e+00)) ((5.995485e+00 -1.527353e+01 1.083526e+02) (-3.476085e-01 7.294100e-02 3.290604e+00) (0.000000e+00 0.000000e+00 0.000000e+00))
0.000195      	((6.294194e-01 1.147367e+01 1.614525e+00) (4.993625e-03 3.346785e-01 -7.157031e-03) (0.000000e+00 0.000000e+00 0.000000e+00)) ((5.953220e+00 -1.522805e+01 1.083100e+02) (-3.471764e-01 7.255932e-02 3.290043e+00) (0.000000e+00 0.000000e+00 0.000000e+00))
0.0001975     	((6.331927e-01 1.147283e+01 1.610215e+00) (5.004440e-03 3.346372e-01 -7.122071e-03) (0.000000e+00 0.000000e+00 0.000000e+00)) ((5.910348e+00 -1.518155e+01 1.082638e+02) (-3.467950e-01 7.222619e-02 3.289526e+00) (0.000000e+00 0.000000e+00 0.000000e+00))
0.0002        	((6.370371e-01 1.147181e+01 1.605959e+00) (5.017378e-03 3.346006e-01 -7.092926e-03) (0.000000e+00 0.000000e+00 0.000000e+00)) ((5.868289e+00 -1.513560e+01 1.082151e+02) (-3.464750e-01 7.195256e-02 3.289034e+00) (0.000000e+00 0.000000e+00 0.000000e+00))
0.0002025     	((6.409165e-01 1.147067e+01 1.601859e+00) (5.032505e-03 3.345680e-01 -7.069325e-03) (0.000000e+00 0.000000e+00 0.000000e+00)) ((5.827970e+00 -1.509122e+01 1.081649e+02) (-3.462135e-01 7.173541e-02 3.288558e+00) (0.000000e+00 0.000000e+00 0.000000e+00))
0.000205      	((6.448189e-01 1.146950e+01 1.597999e+00) (5.051602e-03 3.345375e-01 -7.052281e-03) (0.000000e+00 0.000000e+00 0.000000e+00)) ((5.790145e+00 -1.504924e+01 1.081141e+02) (-3.460193e-01 7.158656e-02 3.288064e+00) (0.000000e+00 0.000000e+00 0.000000e+00))
0.0002075     	((6.486706e-01 1.146834e+01 1.594435e+00) (5.073863e-03 3.345084e-01 -7.040619e-03) (0.000000e+00 0.000000e+00 0.000000e+00)) ((5.755332e+00 -1.501029e+01 1.080638e+02) (-3.458800e-01 7.149358e-02 3.287551e+00) (0.000000e+00 0.000000e+00 0.000000e+00))
0.00021       	((6.523678e-01 1.146721e+01 1.591227e+00) (5.097678e-03 3.344801e-01 -7.033334e-03) (0.000000e+00 0.000000e+00 0.000000e+00)) ((5.724091e+00 -1.497506e+01 1.080154e+02) (-3.457852e-01 7.144505e-02 3.287030e+00) (0.000000e+00 0.000000e+00 0.000000e+00))
0.0002125     	((6.558580e-01 1.146612e+01 1.588386e+00) (5.121867e-03 3.344524e-01 -7.029000e-03) (0.000000e+00 0.000000e+00 0.000000e+00)) ((5.696517e+00 -1.494368e+01 1.079694e+02) (-3.457204e-01 7.142570e-02 3.286511e+00) (0.000000e+00 0.000000e+00 0.000000e+00))
0.000215      	((6.591459e-01 1.146508e+01 1.585898e+00) (5.146181e-03 3.344253e-01 -7.027068e-03) (0.000000e+00 0.000000e+00 0.000000e+00)) ((5.672434e+00 -1.491602e+01 1.079259e+02) (-3.456801e-01 7.142999e-02 3.285997e+00) (0.000000e+00 0.000000e+00 0.000000e+00))
0.0002175     	((6.622774e-01 1.146411e+01 1.583716e+00) (5.171250e-03 3.343982e-01 -7.026992e-03) (0.000000e+00 0.000000e+00 0.000000e+00)) ((5.651368e+00 -1.489157e+01 1.078846e+02) (-3.456588e-01 7.145280e-02 3.285475e+00) (0.000000e+00 0.000000e+00 0.000000e+00))
0.00022       	((6.652522e-01 1.146323e+01 1.581825e+00) (5.196561e-03 3.343716e-01 -7.028233e-03) (0.000000e+00 0.000000e+00 0.000000e+00)) ((5.633116e+00 -1.487019e+01 1.078458e+02) (-3.456513e-01 7.148848e-02 3.284955e+00) (0.000000e+00 0.000000e+00 0.000000e+00))
0.0002225     	((6.680747e-01 1.146245e+01 1.580190e+00) (5.221545e-03 3.343449e-01 -7.029962e-03) (0.000000e+00 0.000000e+00 0.000000e+00)) ((5.617345e+00 -1.485152e+01 1.078094e+02) (-3.456488e-01 7.152826e-02 3.284436e+00) (0.000000e+00 0.000000e+00 0.000000e+00))
0.000225      	((6.707310e-01 1.146175e+01 1.578803e+00) (5.246139e-03 3.343184e-01 -7.031927e-03) (0.000000e+00 0.000000e+00 0.000000e+00)) ((5.603970e+00 -1.483551e+01 1.077755e+02) (-3.456489e-01 7.156970e-02 3.283923e+00) (0.000000e+00 0.000000e+00 0.000000e+00))
0.0002275     	((6.732405e-01 1.146112e+01 1.577622e+00) (5.270274e-03 3.342920e-01 -7.033361e-03) (0.000000e+00 0.000000e+00 0.000000e+00)) ((5.592584e+00 -1.482170e+01 1.077437e+02) (-3.456438e-01 7.160502e-02 3.283416e+00) (0.000000e+00 0.000000e+00 0.000000e+00))
0.00023       	((6.756287e-01 1.146057e+01 1.576618e+00) (5.294003e-03 3.342660e-01 -7.034395e-03) (0.000000e+00 0.000000e+00 0.000000e+00)) ((5.582909e+00 -1.480981e+01 1.077139e+02) (-3.456350e-01 7.163569e-02 3.282916e+00) (0.000000e+00 0.000000e+00 0.000000e+00))
0.0002325     	((6.779216e-01 1.146009e+01 1.575751e+00) (5.317056e-03 3.342403e-01 -7.034546e-03) (0.000000e+00 0.000000e+00 0.000000e+00)) ((5.574527e+00 -1.479939e+01 1.076857e+02) (-3.456174e-01 7.165662e-02 3.282426e+00) (0.000000e+00 0.000000e+00 0.000000e+00))
0.000235      	((6.801213e-01 1.145971e+01 1.575015e+00) (5.339342e-03 3.342152e-01 -7.034050e-03) (0.000000e+00 0.000000e+00 0.000000e+00)) ((5.567378e+00 -1.479038e+01 1.076594e+02) (-3.455937e-01 7.167023e-02 3.281949e+00) (0.000000e+00 0.000000e+00 0.000000e+00))
0.0002375     	((6.822370e-01 1.145940e+01 1.574379e+00) (5.360556e-03 3.341907e-01 -7.032608e-03) (0.000000e+00 0.000000e+00 0.000000e+00)) ((5.561164e+00 -1.478245e+01 1.076346e+02) (-3.455610e-01 7.167324e-02 3.281488e+00) (0.000000e+00 0.000000e+00 0.000000e+00))
0.00024       	((6.842745e-01 1.145917e+01 1.573827e+00) (5.380827e-03 3.341670e-01 -7.030471e-03) (0.000000e+00 0.000000e+00 0.000000e+00)) ((5.555719e+00 -1.477544e+01 1.076113e+02) (-3.455218e-01 7.166842e-02 3.281045e+00) (0.000000e+00 0.000000e+00 0.000000e+00))
0.0002425     	((6.862561e-01 1.145900e+01 1.573318e+00) (5.400016e-03 3.341442e-01 -7.027403e-03) (0.000000e+00 0.000000e+00 0.000000e+00)) ((5.550648e+00 -1.476892e+01 1.075892e+02) (-3.454739e-01 7.165324e-02 3.280621e+00) (0.000000e+00 0.000000e+00 0.000000e+00))
0.000245      	((6.881784e-01 1.145890e+01 1.572847e+00) (5.418393e-03 3.341224e-01 -7.023841e-03) (0.000000e+00 0.000000e+00 0.000000e+00)) ((5.545898e+00 -1.476283e+01 1.075683e+02) (-3.454217e-01 7.163242e-02 3.280216e+00) (0.000000e+00 0.000000e+00 0.000000e+00))
0.0002475     	((6.900446e-01 1.145884e+01 1.572393e+00) (5.435750e-03 3.341015e-01 -7.019470e-03) (0.000000e+00 0.000000e+00 0.000000e+00)) ((5.541277e+00 -1.475695e+01 1.075486e+02) (-3.453619e-01 7.160256e-02 3.279830e+00) (0.000000e+00 0.000000e+00 0.000000e+00))
0.00025       	((6.918519e-01 1.145883e+01 1.571956e+00) (5.452185e-03 3.340817e-01 -7.014766e-03) (0.000000e+00 0.000000e+00 0.000000e+00)) ((5.536791e+00 -1.475128e+01 1.075297e+02) (-3.452994e-01 7.156864e-02 3.279463e+00) (0.000000e+00 0.000000e+00 0.000000e+00))
0.0002525     	((6.936165e-01 1.145884e+01 1.571507e+00) (5.467603e-03 3.340627e-01 -7.009472e-03) (0.000000e+00 0.000000e+00 0.000000e+00)) ((5.532175e+00 -1.474553e+01 1.075116e+02) (-3.452314e-01 7.152794e-02 3.279116e+00) (0.000000e+00 0.000000e+00 0.000000e+00))
0.000255      	((6.953635e-01 1.145887e+01 1.571036e+00) (5.483322e-03 3.340453e-01 -7.005206e-03) (0.000000e+00 0.000000e+00 0.000000e+00)) ((5.527323e+00 -1.473955e+01 1.074938e+02) (-3.451749e-01 7.149786e-02 3.278781e+00) (0.000000e+00 0.000000e+00 0.000000e+00))
0.0002575     	((6.970837e-01 1.145890e+01 1.570520e+00) (5.498271e-03 3.340311e-01 -7.000927e-03) (0.000000e+00 0.000000e+00 0.000000e+00)) ((5.522031e+00 -1.473313e+01 1.074763e+02) (-3.451213e-01 7.146697e-02 3.278486e+00) (0.000000e+00 0.000000e+00 0.000000e+00))
0.00026       	((6.986711e-01 1.145890e+01 1.569993e+00) (5.510549e-03 3.340205e-01 -6.995351e-03) (0.000000e+00 0.000000e+00 0.000000e+00)) ((5.516672e+00 -1.472671e+01 1.074599e+02) (-3.450576e-01 7.142085e-02 3.278253e+00) (0.000000e+00 0.000000e+00 0.000000e+00))
0.0002625     	((7.001050e-01 1.145886e+01 1.569454e+00) (5.521202e-03 3.340112e-01 -6.989290e-03) (0.000000e+00 0.000000e+00 0.000000e+00)) ((5.511245e+00 -1.472028e+01 1.074448e+02) (-3.449899e-01 7.136848e-02 3.278050e+00) (0.000000e+00 0.000000e+00 0.000000e+00))
0.000265      	((7.013965e-01 1.145878e+01 1.568916e+00) (5.531127e-03 3.340025e-01 -6.983572e-03) (0.000000e+00 0.000000e+00 0.000000e+00)) ((5.505879e+00 -1.471398e+01 1.074306e+02) (-3.449257e-01 7.131909e-02 3.277861e+00) (0.000000e+00 0.000000e+00 0.000000e+00))
0.0002675     	((7.025604e-01 1.145867e+01 1.568361e+00) (5.539943e-03 3.339940e-01 -6.977343e-03) (0.000000e+00 0.000000e+00 0.000000e+00)) ((5.500401e+00 -1.470760e+01 1.074176e+02) (-3.448558e-01 7.126380e-02 3.277684e+00) (0.000000e+00 0.000000e+00 0.000000e+00))
0.00027       	((7.036107e-01 1.145856e+01 1.567797e+00) (5.548741e-03 3.339848e-01 -6.971728e-03) (0.000000e+00 0.000000e+00 0.000000e+00)) ((5.494842e+00 -1.470120e+01 1.074057e+02) (-3.447910e-01 7.121499e-02 3.277501e+00) (0.000000e+00 0.000000e+00 0.000000e+00))
0.0002725     	((7.045815e-01 1.145848e+01 1.567201e+00) (5.558171e-03 3.339747e-01 -6.966988e-03) (0.000000e+00 0.000000e+00 0.000000e+00)) ((5.488947e+00 -1.469451e+01 1.073949e+02) (-3.447336e-01 7.117578e-02 3.277304e+00) (0.000000e+00 0.000000e+00 0.000000e+00))
0.000275      	((7.054677e-01 1.145846e+01 1.566587e+00) (5.568445e-03 3.339648e-01 -6.963831e-03) (0.000000e+00 0.000000e+00 0.000000e+00)) ((5.482817e+00 -1.468768e+01 1.073855e+02) (-3.446920e-01 7.115352e-02 3.277101e+00) (0.000000e+00 0.000000e+00 0.000000e+00))
0.0002775     	((7.062449e-01 1.145848e+01 1.565947e+00) (5.578440e-03 3.339567e-01 -6.961482e-03) (0.000000e+00 0.000000e+00 0.000000e+00)) ((5.476394e+00 -1.468065e+01 1.073778e+02) (-3.446601e-01 7.113926e-02 3.276917e+00) (0.000000e+00 0.000000e+00 0.000000e+00))