# Forces      
# CofR        : (0.000000e+00 0.000000e+00 0.000000e+00)
# Time        forces(pressure viscous porous)	moments(pressure viscous porous)
2.5e-06       	((6.940741e-01 2.908841e+01 9.264938e-02) (5.859005e-04 6.975087e-01 -7.691736e-03) (0.000000e+00 0.000000e+00 0.000000e+00)) ((-2.417740e+01 2.963210e-01 2.840167e+02) (-7.413461e-01 7.429423e-02 6.954832e+00) (0.000000e+00 0.000000e+00 0.000000e+00))
5e-06         	((-1.577052e+00 1.322875e+02 -5.026194e+00) (5.374264e-03 9.467546e-01 -1.381824e-02) (0.000000e+00 0.000000e+00 0.000000e+00)) ((-1.639425e+02 5.057426e+01 1.338684e+03) (-9.631204e-01 1.406934e-01 9.395746e+00) (0.000000e+00 0.000000e+00 0.000000e+00))
7.5e-06       	((-1.217609e+01 2.366139e+02 -1.636434e+01) (2.327208e-02 9.680750e-01 -1.716637e-02) (0.000000e+00 0.000000e+00 0.000000e+00)) ((-3.729992e+02 1.542402e+02 2.488708e+03) (-9.427165e-01 1.890786e-01 9.432035e+00) (0.000000e+00 0.000000e+00 0.000000e+00))
1e-05         	((-5.379720e+00 9.709576e+01 -3.058089e+01) (2.855939e-02 8.504508e-01 -1.635995e-02) (0.000000e+00 0.000000e+00 0.000000e+00)) ((-4.071609e+02 3.041626e+02 1.028922e+03) (-8.276334e-01 1.840039e-01 8.200957e+00) (0.000000e+00 0.000000e+00 0.000000e+00))
1.25e-05      	((1.257591e+01 3.743927e+01 -7.093678e+00) (6.944772e-02 1.689996e+00 3.688712e-01) (0.000000e+00 0.000000e+00 0.000000e+00)) ((-1.021883e+02 8.394499e+01 2.490249e+02) (2.615380e+00 -3.638285e+00 1.614064e+01) (0.000000e+00 0.000000e+00 0.000000e+00))
1.5e-05       	((3.034404e+01 3.447012e+02 1.075047e+02) (9.453501e-02 2.293492e+00 5.207914e-01) (0.000000e+00 0.000000e+00 0.000000e+00)) ((9.028211e+02 -1.050282e+03 3.126071e+03) (3.838557e+00 -5.140214e+00 2.189706e+01) (0.000000e+00 0.000000e+00 0.000000e+00))
1.75e-05      	((5.095037e+00 2.752248e+02 7.272088e+01) (1.496604e-02 -1.397131e+00 -1.308677e+00) (0.000000e+00 0.000000e+00 0.000000e+00)) ((5.784004e+02 -7.214715e+02 2.690187e+03) (-1.275050e+01 1.304639e+01 -1.405887e+01) (0.000000e+00 0.000000e+00 0.000000e+00))
2e-05         	((-3.729788e+00 6.423961e+01 2.524256e+00) (-4.951038e-02 -2.496293e+00 -1.314144e+00) (0.000000e+00 0.000000e+00 0.000000e+00)) ((-2.590190e+01 -2.846527e+01 6.785967e+02) (-1.219947e+01 1.306713e+01 -2.435362e+01) (0.000000e+00 0.000000e+00 0.000000e+00))
2.25e-05      	((-7.225535e+00 -1.835680e+02 -6.658932e+01) (-4.998034e-02 -1.198939e+00 -7.228286e-01) (0.000000e+00 0.000000e+00 0.000000e+00)) ((-5.923642e+02 6.581029e+02 -1.752790e+03) (-6.881574e+00 7.173536e+00 -1.142246e+01) (0.000000e+00 0.000000e+00 0.000000e+00))
2.5e-05       	((-1.112682e+00 -1.308567e+02 -4.856504e+01) (-6.673820e-02 8.602281e-01 6.855151e-03) (0.000000e+00 0.000000e+00 0.000000e+00)) ((-4.307635e+02 4.833341e+02 -1.290406e+03) (-5.793734e-01 -1.025131e-01 9.258331e+00) (0.000000e+00 0.000000e+00 0.000000e+00))
2.75e-05      	((1.145752e+01 -3.764158e+01 -1.430648e+01) (2.708428e-02 2.228631e+00 3.796544e-01) (0.000000e+00 0.000000e+00 0.000000e+00)) ((-1.270584e+02 1.495633e+02 -4.899805e+02) (2.516007e+00 -3.772639e+00 2.192542e+01) (0.000000e+00 0.000000e+00 0.000000e+00))
3e-05         	((1.240260e+01 2.417206e+02 6.140406e+01) (8.496276e-02 1.299808e+00 1.362220e-01) (0.000000e+00 0.000000e+00 0.000000e+00)) ((4.947516e+02 -6.025323e+02 2.279900e+03) (5.326369e-01 -1.313108e+00 1.210057e+01) (0.000000e+00 0.000000e+00 0.000000e+00))
3.25e-05      	((-4.385202e+00 2.890654e+02 6.508002e+01) (2.906914e-02 8.965870e-01 1.236153e-01) (0.000000e+00 0.000000e+00 0.000000e+00)) ((5.037132e+02 -6.482893e+02 2.921315e+03) (6.150067e-01 -1.218361e+00 8.651737e+00) (0.000000e+00 0.000000e+00 0.000000e+00))
3.5e-05       	((-1.360037e+01 1.559540e+02 2.555714e+01) (5.734372e-02 5.976191e-01 4.929685e-02) (0.000000e+00 0.000000e+00 0.000000e+00)) ((1.700571e+02 -2.612222e+02 1.691268e+03) (1.556959e-02 -4.648895e-01 5.387022e+00) (0.000000e+00 0.000000e+00 0.000000e+00))
3.75e-05      	((-1.341633e+01 4.811957e+01 -3.847933e+00) (-1.921031e-02 -2.479886e-01 -2.864956e-01) (0.000000e+00 0.000000e+00 0.000000e+00)) ((-7.209447e+01 3.106937e+01 6.165650e+02) (-2.932466e+00 2.835504e+00 -2.251724e+00) (0.000000e+00 0.000000e+00 0.000000e+00))
4e-05         	((-1.328906e+01 -1.072492e+02 -4.732545e+01) (-4.928005e-02 -5.385881e-02 -1.899459e-01) (0.000000e+00 0.000000e+00 0.000000e+00)) ((-4.300041e+02 4.640810e+02 -9.322104e+02) (-2.065336e+00 1.858778e+00 -2.006406e-02) (0.000000e+00 0.000000e+00 0.000000e+00))
4.25e-05      	((4.543993e+00 -7.172967e+01 -2.792027e+01) (-1.056292e-02 5.770522e-01 7.344040e-02) (0.000000e+00 0.000000e+00 0.000000e+00)) ((-2.510206e+02 2.800648e+02 -7.599821e+02) (2.685219e-01 -7.437913e-01 5.865706e+00) (0.000000e+00 0.000000e+00 0.000000e+00))
4.5e-05       	((1.346474e+01 -3.656481e+00 -2.757517e+00) (4.544067e-02 1.317587e+00 3.142928e-01) (0.000000e+00 0.000000e+00 0.000000e+00)) ((-3.126635e+01 3.430875e+01 -1.725789e+02) (2.314351e+00 -3.110158e+00 1.267290e+01) (0.000000e+00 0.000000e+00 0.000000e+00))
4.75e-05      	((4.733478e+00 9.826391e+01 3.066304e+01) (3.452648e-02 1.213007e+00 2.265029e-01) (0.000000e+00 0.000000e+00 0.000000e+00)) ((2.529853e+02 -3.026740e+02 9.306665e+02) (1.492043e+00 -2.238461e+00 1.174573e+01) (0.000000e+00 0.000000e+00 0.000000e+00))
5e-05         	((-9.538147e+00 1.117999e+02 3.182573e+01) (-8.120405e-03 8.164652e-01 8.888264e-02) (0.000000e+00 0.000000e+00 0.000000e+00)) ((2.569732e+02 -3.216638e+02 1.210275e+03) (3.153353e-01 -8.902997e-01 8.228220e+00) (0.000000e+00 0.000000e+00 0.000000e+00))
5.25e-05      	((-1.842434e+01 6.603158e+01 1.490442e+01) (-2.534582e-02 6.041697e-01 1.319591e-02) (0.000000e+00 0.000000e+00 0.000000e+00)) ((1.096177e+02 -1.581939e+02 8.452870e+02) (-3.379605e-01 -1.456361e-01 6.287022e+00) (0.000000e+00 0.000000e+00 0.000000e+00))
5.5e-05       	((-1.850791e+01 3.069214e+01 2.881363e+00) (-9.659798e-02 -1.765192e-01 -2.541117e-01) (0.000000e+00 0.000000e+00 0.000000e+00)) ((6.670406e+00 -3.871532e+01 4.944387e+02) (-2.631921e+00 2.478614e+00 -7.658216e-01) (0.000000e+00 0.000000e+00 0.000000e+00))
5.75e-05      	((-9.658377e+00 -1.233579e+01 -1.046043e+01) (-5.289955e-02 2.009884e-01 -1.064655e-01) (0.000000e+00 0.000000e+00 0.000000e+00)) ((-1.054185e+02 9.890696e+01 -2.426908e+01) (-1.338910e+00 1.030273e+00 2.552220e+00) (0.000000e+00 0.000000e+00 0.000000e+00))
6e-05         	((-5.826703e-01 -5.095496e+00 -7.069534e+00) (-2.568239e-02 5.942530e-01 -2.437080e-02) (0.000000e+00 0.000000e+00 0.000000e+00)) ((-7.458400e+01 7.004162e+01 -4.464321e+01) (-7.162960e-01 2.261106e-01 6.193043e+00) (0.000000e+00 0.000000e+00 0.000000e+00))
6.25e-05      	((4.902924e+00 9.198163e+00 -1.664393e+00) (-1.679853e-02 8.182349e-01 1.447750e-02) (0.000000e+00 0.000000e+00 0.000000e+00)) ((-2.724154e+01 1.910043e+01 4.223326e+01) (-4.372762e-01 -1.560090e-01 8.333063e+00) (0.000000e+00 0.000000e+00 0.000000e+00))
6.5e-05       	((3.623009e-01 3.515661e+01 6.420934e+00) (7.842454e-03 8.444088e-01 4.467543e-02) (0.000000e+00 0.000000e+00 0.000000e+00)) ((4.050381e+01 -6.381996e+01 3.470140e+02) (-1.465712e-01 -4.425127e-01 8.342189e+00) (0.000000e+00 0.000000e+00 0.000000e+00))
6.75e-05      	((-5.979059e+00 4.744191e+01 8.710752e+00) (-7.971554e-03 7.157725e-01 3.016127e-02) (0.000000e+00 0.000000e+00 0.000000e+00)) ((5.679131e+01 -8.995601e+01 5.338255e+02) (-2.248838e-01 -3.068756e-01 7.221833e+00) (0.000000e+00 0.000000e+00 0.000000e+00))
7e-05         	((-8.494946e+00 3.767532e+01 5.516818e+00) (-1.082132e-02 6.782810e-01 2.348521e-02) (0.000000e+00 0.000000e+00 0.000000e+00)) ((2.951249e+01 -5.950429e+01 4.621366e+02) (-2.731560e-01 -2.421968e-01 6.877759e+00) (0.000000e+00 0.000000e+00 0.000000e+00))
7.25e-05      	((-7.694636e+00 2.758772e+01 2.900872e+00) (-2.177339e-02 5.567021e-01 -1.529405e-02) (0.000000e+00 0.000000e+00 0.000000e+00)) ((8.423392e+00 -3.304510e+01 3.534564e+02) (-6.008430e-01 1.374083e-01 5.778878e+00) (0.000000e+00 0.000000e+00 0.000000e+00))
7.5e-05       	((-4.945572e+00 7.411005e+00 -1.988195e+00) (-2.899900e-02 3.840368e-01 -4.600169e-02) (0.000000e+00 0.000000e+00 0.000000e+00)) ((-3.019282e+01 1.717964e+01 1.244104e+02) (-8.208892e-01 4.388724e-01 4.133431e+00) (0.000000e+00 0.000000e+00 0.000000e+00))
7.75e-05      	((-1.693827e+00 6.708215e+00 -2.239892e+00) (-1.877597e-02 5.638066e-01 -2.189808e-02) (0.000000e+00 0.000000e+00 0.000000e+00)) ((-3.231781e+01 2.147031e+01 8.425814e+01) (-6.740097e-01 2.037264e-01 5.818659e+00) (0.000000e+00 0.000000e+00 0.000000e+00))
8e-05         	((7.041297e-01 1.448798e+01 6.876511e-01) (-2.395879e-02 8.832735e-01 1.178235e-01) (0.000000e+00 0.000000e+00 0.000000e+00)) ((-6.819592e+00 -6.321798e+00 1.375693e+02) (5.724624e-01 -1.191875e+00 9.054523e+00) (0.000000e+00 0.000000e+00 0.000000e+00))
8.25e-05      	((-2.660545e+00 4.577883e+01 8.562201e+00) (-7.075206e-03 8.146650e-01 8.464323e-02) (0.000000e+00 0.000000e+00 0.000000e+00)) ((5.585243e+01 -8.660561e+01 4.833757e+02) (2.728405e-01 -8.519918e-01 8.200433e+00) (0.000000e+00 0.000000e+00 0.000000e+00))
8.5e-05       	((-5.322175e+00 5.143400e+01 9.329720e+00) (-5.314607e-03 6.761707e-01 2.214798e-02) (0.000000e+00 0.000000e+00 0.000000e+00)) ((6.047133e+01 -9.558011e+01 5.668412e+02) (-2.864675e-01 -2.281218e-01 6.802547e+00) (0.000000e+00 0.000000e+00 0.000000e+00))
8.75e-05      	((-6.458958e+00 3.720429e+01 5.268818e+00) (-4.155885e-03 6.442475e-01 2.000679e-02) (0.000000e+00 0.000000e+00 0.000000e+00)) ((2.694147e+01 -5.578029e+01 4.368922e+02) (-2.908046e-01 -2.061747e-01 6.472748e+00) (0.000000e+00 0.000000e+00 0.000000e+00))
9e-05         	((-6.219996e+00 2.684701e+01 2.760648e+00) (-2.925338e-03 5.255976e-01 1.059783e-02) (0.000000e+00 0.000000e+00 0.000000e+00)) ((7.088053e+00 -3.073053e+01 3.313472e+02) (-3.216361e-01 -1.118998e-01 5.278712e+00) (0.000000e+00 0.000000e+00 0.000000e+00))
9.25e-05      	((-4.031313e+00 1.178036e+01 -6.309575e-01) (8.006235e-06 4.588464e-01 8.524513e-03) (0.000000e+00 0.000000e+00 0.000000e+00)) ((-1.913400e+01 4.203486e+00 1.588663e+02) (-3.076573e-01 -8.974248e-02 4.583316e+00) (0.000000e+00 0.000000e+00 0.000000e+00))
9.5e-05       	((-1.729262e+00 1.045589e+01 -1.200581e-01) (-1.000186e-02 5.452429e-01 7.687859e-03) (0.000000e+00 0.000000e+00 0.000000e+00)) ((-1.319591e+01 3.093125e-01 1.221347e+02) (-3.619897e-01 -8.698040e-02 5.545657e+00) (0.000000e+00 0.000000e+00 0.000000e+00))
9.75e-05      	((-5.780027e-01 1.727819e+01 2.269278e+00) (-1.071067e-02 6.310277e-01 1.918991e-02) (0.000000e+00 0.000000e+00 0.000000e+00)) ((7.358575e+00 -2.288914e+01 1.784746e+02) (-2.929095e-01 -2.021254e-01 6.407281e+00) (0.000000e+00 0.000000e+00 0.000000e+00))
0.0001        	((-7.145506e-01 2.315460e+01 3.891146e+00) (-4.898664e-03 6.339973e-01 1.045241e-02) (0.000000e+00 0.000000e+00 0.000000e+00)) ((2.059821e+01 -3.909659e+01 2.385182e+02) (-3.826005e-01 -1.119013e-01 6.378386e+00) (0.000000e+00 0.000000e+00 0.000000e+00))
0.0001025     	((-2.001995e+00 2.575510e+01 4.093543e+00) (-5.664308e-03 6.193647e-01 5.855847e-04) (0.000000e+00 0.000000e+00 0.000000e+00)) ((2.121186e+01 -4.175360e+01 2.776118e+02) (-4.745092e-01 -1.408133e-02 6.240573e+00) (0.000000e+00 0.000000e+00 0.000000e+00))
0.000105      	((-3.125695e+00 2.425371e+01 3.266321e+00) (-4.437189e-03 6.107598e-01 -2.653832e-03) (0.000000e+00 0.000000e+00 0.000000e+00)) ((1.360192e+01 -3.410419e+01 2.741665e+02) (-5.030064e-01 1.883691e-02 6.142447e+00) (0.000000e+00 0.000000e+00 0.000000e+00))
0.0001075     	((-3.460810e+00 2.249186e+01 2.627837e+00) (-5.406498e-03 5.993387e-01 -4.313858e-03) (0.000000e+00 0.000000e+00 0.000000e+00)) ((8.052286e+00 -2.794259e+01 2.600532e+02) (-5.139400e-01 3.476600e-02 6.038509e+00) (0.000000e+00 0.000000e+00 0.000000e+00))
0.00011       	((-3.038039e+00 2.159553e+01 2.465977e+00) (-5.118616e-03 5.836091e-01 -6.945958e-03) (0.000000e+00 0.000000e+00 0.000000e+00)) ((6.896456e+00 -2.611925e+01 2.467894e+02) (-5.322319e-01 6.107984e-02 5.878848e+00) (0.000000e+00 0.000000e+00 0.000000e+00))
0.0001125     	((-2.338082e+00 2.111179e+01 2.412098e+00) (-6.586351e-03 5.839881e-01 -8.790112e-03) (0.000000e+00 0.000000e+00 0.000000e+00)) ((6.644640e+00 -2.521833e+01 2.347978e+02) (-5.515802e-01 7.857380e-02 5.897388e+00) (0.000000e+00 0.000000e+00 0.000000e+00))
0.000115      	((-1.901648e+00 2.126249e+01 2.535031e+00) (-8.919213e-03 5.884412e-01 -9.650391e-03) (0.000000e+00 0.000000e+00 0.000000e+00)) ((7.855326e+00 -2.621368e+01 2.318384e+02) (-5.631637e-01 8.578854e-02 5.965302e+00) (0.000000e+00 0.000000e+00 0.000000e+00))
0.0001175     	((-1.780125e+00 2.126176e+01 2.577431e+00) (-1.011444e-02 5.878067e-01 -9.271733e-03) (0.000000e+00 0.000000e+00 0.000000e+00)) ((8.325131e+00 -2.656749e+01 2.306256e+02) (-5.594024e-01 8.128937e-02 5.971115e+00) (0.000000e+00 0.000000e+00 0.000000e+00))
0.00012       	((-1.942092e+00 2.119576e+01 2.552817e+00) (-1.011595e-02 5.860481e-01 -8.601106e-03) (0.000000e+00 0.000000e+00 0.000000e+00)) ((8.128335e+00 -2.640191e+01 2.316652e+02) (-5.519179e-01 7.456373e-02 5.953768e+00) (0.000000e+00 0.000000e+00 0.000000e+00))
0.0001225     	((-2.070553e+00 2.102075e+01 2.468528e+00) (-9.821373e-03 5.840392e-01 -8.612581e-03) (0.000000e+00 0.000000e+00 0.000000e+00)) ((7.364922e+00 -2.562409e+01 2.312720e+02) (-5.511769e-01 7.476612e-02 5.930983e+00) (0.000000e+00 0.000000e+00 0.000000e+00))
0.000125      	((-2.075502e+00 2.085324e+01 2.359880e+00) (-9.470569e-03 5.821414e-01 -8.582047e-03) (0.000000e+00 0.000000e+00 0.000000e+00)) ((6.341002e+00 -2.453773e+01 2.296771e+02) (-5.500719e-01 7.460569e-02 5.908700e+00) (0.000000e+00 0.000000e+00 0.000000e+00))
0.0001275     	((-1.923963e+00 2.075241e+01 2.250045e+00) (-9.164432e-03 5.807650e-01 -8.765794e-03) (0.000000e+00 0.000000e+00 0.000000e+00)) ((5.270276e+00 -2.335339e+01 2.271385e+02) (-5.514144e-01 7.658756e-02 5.892004e+00) (0.000000e+00 0.000000e+00 0.000000e+00))
0.00013       	((-1.701812e+00 2.071905e+01 2.157397e+00) (-8.725253e-03 5.798350e-01 -9.038466e-03) (0.000000e+00 0.000000e+00 0.000000e+00)) ((4.342801e+00 -2.229723e+01 2.245507e+02) (-5.538407e-01 7.954190e-02 5.878336e+00) (0.000000e+00 0.000000e+00 0.000000e+00))
0.0001325     	((-1.480672e+00 2.070160e+01 2.087509e+00) (-8.243629e-03 5.792699e-01 -9.420750e-03) (0.000000e+00 0.000000e+00 0.000000e+00)) ((3.642824e+00 -2.146243e+01 2.221349e+02) (-5.575738e-01 8.364614e-02 5.867845e+00) (0.000000e+00 0.000000e+00 0.000000e+00))
0.000135      	((-1.299537e+00 2.065642e+01 2.043360e+00) (-7.835003e-03 5.789744e-01 -9.813978e-03) (0.000000e+00 0.000000e+00 0.000000e+00)) ((3.219246e+00 -2.090090e+01 2.198537e+02) (-5.615495e-01 8.783789e-02 5.860794e+00) (0.000000e+00 0.000000e+00 0.000000e+00))
0.0001375     	((-1.165638e+00 2.058182e+01 2.017608e+00) (-7.551157e-03 5.786161e-01 -1.004830e-02) (0.000000e+00 0.000000e+00 0.000000e+00)) ((2.993979e+00 -2.054563e+01 2.177610e+02) (-5.638620e-01 9.041811e-02 5.854461e+00) (0.000000e+00 0.000000e+00 0.000000e+00))
0.00014       	((-1.070682e+00 2.050369e+01 2.003732e+00) (-7.337806e-03 5.781439e-01 -1.017548e-02) (0.000000e+00 0.000000e+00 0.000000e+00)) ((2.885387e+00 -2.032800e+01 2.160286e+02) (-5.649833e-01 9.190174e-02 5.847759e+00) (0.000000e+00 0.000000e+00 0.000000e+00))
0.0001425     	((-1.001275e+00 2.044887e+01 1.998384e+00) (-7.186252e-03 5.775306e-01 -1.030122e-02) (0.000000e+00 0.000000e+00 0.000000e+00)) ((2.847300e+00 -2.020833e+01 2.147881e+02) (-5.659891e-01 9.336069e-02 5.840316e+00) (0.000000e+00 0.000000e+00 0.000000e+00))
0.000145      	((-9.464457e-01 2.042606e+01 2.003446e+00) (-7.025908e-03 5.769363e-01 -1.042515e-02) (0.000000e+00 0.000000e+00 0.000000e+00)) ((2.897689e+00 -2.020051e+01 2.140152e+02) (-5.669345e-01 9.479473e-02 5.832948e+00) (0.000000e+00 0.000000e+00 0.000000e+00))
0.0001475     	((-9.017795e-01 2.042463e+01 2.022297e+00) (-6.838716e-03 5.764791e-01 -1.051408e-02) (0.000000e+00 0.000000e+00 0.000000e+00)) ((3.079481e+00 -2.033755e+01 2.135588e+02) (-5.675795e-01 9.590746e-02 5.826655e+00) (0.000000e+00 0.000000e+00 0.000000e+00))
0.00015       	((-8.662075e-01 2.042837e+01 2.053678e+00) (-6.657593e-03 5.760976e-01 -1.057152e-02) (0.000000e+00 0.000000e+00 0.000000e+00)) ((3.388375e+00 -2.060758e+01 2.132459e+02) (-5.679102e-01 9.669509e-02 5.821136e+00) (0.000000e+00 0.000000e+00 0.000000e+00))
0.0001525     	((-8.378068e-01 2.042891e+01 2.090047e+00) (-6.416068e-03 5.757490e-01 -1.060980e-02) (0.000000e+00 0.000000e+00 0.000000e+00)) ((3.749718e+00 -2.093593e+01 2.129713e+02) (-5.680792e-01 9.733206e-02 5.815302e+00) (0.000000e+00 0.000000e+00 0.000000e+00))
0.000155      	((-8.119814e-01 2.042637e+01 2.123541e+00) (-6.131444e-03 5.752631e-01 -1.063233e-02) (0.000000e+00 0.000000e+00 0.000000e+00)) ((4.081200e+00 -2.124187e+01 2.126881e+02) (-5.680185e-01 9.782634e-02 5.807623e+00) (0.000000e+00 0.000000e+00 0.000000e+00))
0.0001575     	((-7.850322e-01 2.042438e+01 2.151139e+00) (-5.807000e-03 5.746542e-01 -1.068945e-02) (0.000000e+00 0.000000e+00 0.000000e+00)) ((4.350206e+00 -2.149337e+01 2.123941e+02) (-5.683100e-01 9.868159e-02 5.798287e+00) (0.000000e+00 0.000000e+00 0.000000e+00))
0.00016       	((-7.550101e-01 2.042391e+01 2.175586e+00) (-5.476610e-03 5.738569e-01 -1.077341e-02) (0.000000e+00 0.000000e+00 0.000000e+00)) ((4.585505e+00 -2.171672e+01 2.120802e+02) (-5.688073e-01 9.977729e-02 5.786969e+00) (0.000000e+00 0.000000e+00 0.000000e+00))
0.0001625     	((-7.217827e-01 2.042369e+01 2.201507e+00) (-5.134708e-03 5.729729e-01 -1.088147e-02) (0.000000e+00 0.000000e+00 0.000000e+00)) ((4.836446e+00 -2.195812e+01 2.117336e+02) (-5.695691e-01 1.010965e-01 5.774635e+00) (0.000000e+00 0.000000e+00 0.000000e+00))
0.000165      	((-6.835758e-01 2.042165e+01 2.231104e+00) (-4.778002e-03 5.719435e-01 -1.100353e-02) (0.000000e+00 0.000000e+00 0.000000e+00)) ((5.126489e+00 -2.223806e+01 2.113163e+02) (-5.704141e-01 1.025324e-01 5.760659e+00) (0.000000e+00 0.000000e+00 0.000000e+00))
0.0001675     	((-6.393177e-01 2.041641e+01 2.263124e+00) (-4.407468e-03 5.709113e-01 -1.110878e-02) (0.000000e+00 0.000000e+00 0.000000e+00)) ((5.442564e+00 -2.254333e+01 2.108026e+02) (-5.711276e-01 1.037913e-01 5.746492e+00) (0.000000e+00 0.000000e+00 0.000000e+00))
0.00017       	((-5.870360e-01 2.040748e+01 2.294794e+00) (-4.027106e-03 5.697952e-01 -1.116601e-02) (0.000000e+00 0.000000e+00 0.000000e+00)) ((5.755398e+00 -2.284467e+01 2.101664e+02) (-5.712918e-01 1.045533e-01 5.731361e+00) (0.000000e+00 0.000000e+00 0.000000e+00))
0.0001725     	((-5.266437e-01 2.039663e+01 2.322671e+00) (-3.642534e-03 5.687062e-01 -1.119178e-02) (0.000000e+00 0.000000e+00 0.000000e+00)) ((6.028178e+00 -2.310654e+01 2.094237e+02) (-5.711702e-01 1.049951e-01 5.716447e+00) (0.000000e+00 0.000000e+00 0.000000e+00))
0.000175      	((-4.622108e-01 2.038597e+01 2.345576e+00) (-3.269232e-03 5.675985e-01 -1.120235e-02) (0.000000e+00 0.000000e+00 0.000000e+00)) ((6.247951e+00 -2.331720e+01 2.086387e+02) (-5.708732e-01 1.052668e-01 5.701450e+00) (0.000000e+00 0.000000e+00 0.000000e+00))
0.0001775     	((-4.030664e-01 2.037705e+01 2.363933e+00) (-2.930957e-03 5.665801e-01 -1.119993e-02) (0.000000e+00 0.000000e+00 0.000000e+00)) ((6.419398e+00 -2.348420e+01 2.079254e+02) (-5.705228e-01 1.053940e-01 5.687715e+00) (0.000000e+00 0.000000e+00 0.000000e+00))
0.00018       	((-3.586429e-01 2.036901e+01 2.379174e+00) (-2.666154e-03 5.656004e-01 -1.119107e-02) (0.000000e+00 0.000000e+00 0.000000e+00)) ((6.559365e+00 -2.362552e+01 2.073749e+02) (-5.701217e-01 1.054165e-01 5.675127e+00) (0.000000e+00 0.000000e+00 0.000000e+00))
0.0001825     	((-3.363337e-01 2.036130e+01 2.391628e+00) (-2.475901e-03 5.647756e-01 -1.117879e-02) (0.000000e+00 0.000000e+00 0.000000e+00)) ((6.673047e+00 -2.374788e+01 2.070592e+02) (-5.697910e-01 1.053765e-01 5.664870e+00) (0.000000e+00 0.000000e+00 0.000000e+00))
0.000185      	((-3.391172e-01 2.035351e+01 2.401252e+00) (-2.372192e-03 5.640372e-01 -1.113630e-02) (0.000000e+00 0.000000e+00 0.000000e+00)) ((6.760494e+00 -2.385202e+01 2.070062e+02) (-5.691754e-01 1.049919e-01 5.656384e+00) (0.000000e+00 0.000000e+00 0.000000e+00))
0.0001875     	((-3.655500e-01 2.034619e+01 2.407470e+00) (-2.353151e-03 5.634617e-01 -1.106621e-02) (0.000000e+00 0.000000e+00 0.000000e+00)) ((6.815205e+00 -2.393160e+01 2.072061e+02) (-5.683680e-01 1.042986e-01 5.650418e+00) (0.000000e+00 0.000000e+00 0.000000e+00))
0.00019       	((-4.103257e-01 2.034033e+01 2.409982e+00) (-2.425407e-03 5.629739e-01 -1.095117e-02) (0.000000e+00 0.000000e+00 0.000000e+00)) ((6.832772e+00 -2.398106e+01 2.076132e+02) (-5.671101e-01 1.031093e-01 5.646276e+00) (0.000000e+00 0.000000e+00 0.000000e+00))
0.0001925     	((-4.662635e-01 2.033587e+01 2.409436e+00) (-2.552807e-03 5.626198e-01 -1.080241e-02) (0.000000e+00 0.000000e+00 0.000000e+00)) ((6.819537e+00 -2.400389e+01 2.081515e+02) (-5.655835e-01 1.015643e-01 5.644052e+00) (0.000000e+00 0.000000e+00 0.000000e+00))
0.000195      	((-5.249465e-01 2.033240e+01 2.406673e+00) (-2.734995e-03 5.623221e-01 -1.063670e-02) (0.000000e+00 0.000000e+00 0.000000e+00)) ((6.784209e+00 -2.400468e+01 2.087291e+02) (-5.638920e-01 9.981772e-02 5.642955e+00) (0.000000e+00 0.000000e+00 0.000000e+00))
0.0001975     	((-5.796506e-01 2.032913e+01 2.402676e+00) (-2.932675e-03 5.621083e-01 -1.047597e-02) (0.000000e+00 0.000000e+00 0.000000e+00)) ((6.737260e+00 -2.399055e+01 2.092678e+02) (-5.623124e-01 9.811805e-02 5.642860e+00) (0.000000e+00 0.000000e+00 0.000000e+00))
0.0002        	((-6.258468e-01 2.032551e+01 2.398762e+00) (-3.138066e-03 5.619054e-01 -1.032283e-02) (0.000000e+00 0.000000e+00 0.000000e+00)) ((6.692125e+00 -2.397286e+01 2.097149e+02) (-5.608093e-01 9.648463e-02 5.642950e+00) (0.000000e+00 0.000000e+00 0.000000e+00))
0.0002025     	((-6.612462e-01 2.032146e+01 2.395568e+00) (-3.319623e-03 5.617578e-01 -1.020117e-02) (0.000000e+00 0.000000e+00 0.000000e+00)) ((6.655067e+00 -2.395759e+01 2.100451e+02) (-5.596838e-01 9.518060e-02 5.643347e+00) (0.000000e+00 0.000000e+00 0.000000e+00))
0.000205      	((-6.841297e-01 2.031743e+01 2.393281e+00) (-3.487427e-03 5.616016e-01 -1.010406e-02) (0.000000e+00 0.000000e+00 0.000000e+00)) ((6.627434e+00 -2.394612e+01 2.102449e+02) (-5.587961e-01 9.411912e-02 5.643506e+00) (0.000000e+00 0.000000e+00 0.000000e+00))
0.0002075     	((-6.942558e-01 2.031382e+01 2.391921e+00) (-3.605155e-03 5.614863e-01 -1.003493e-02) (0.000000e+00 0.000000e+00 0.000000e+00)) ((6.609108e+00 -2.393904e+01 2.103153e+02) (-5.582387e-01 9.336475e-02 5.643561e+00) (0.000000e+00 0.000000e+00 0.000000e+00))
0.00021       	((-6.923107e-01 2.031063e+01 2.391280e+00) (-3.691305e-03 5.613520e-01 -9.982019e-03) (0.000000e+00 0.000000e+00 0.000000e+00)) ((6.597923e+00 -2.393456e+01 2.102635e+02) (-5.578231e-01 9.277848e-02 5.643092e+00) (0.000000e+00 0.000000e+00 0.000000e+00))
0.0002125     	((-6.806181e-01 2.030779e+01 2.390985e+00) (-3.734054e-03 5.612501e-01 -9.954665e-03) (0.000000e+00 0.000000e+00 0.000000e+00)) ((6.590309e+00 -2.393019e+01 2.101125e+02) (-5.576995e-01 9.247035e-02 5.642499e+00) (0.000000e+00 0.000000e+00 0.000000e+00))
0.000215      	((-6.619919e-01 2.030539e+01 2.390815e+00) (-3.754683e-03 5.611263e-01 -9.930742e-03) (0.000000e+00 0.000000e+00 0.000000e+00)) ((6.583966e+00 -2.392468e+01 2.098930e+02) (-5.575810e-01 9.219952e-02 5.641451e+00) (0.000000e+00 0.000000e+00 0.000000e+00))
0.0002175     	((-6.402028e-01 2.030375e+01 2.390486e+00) (-3.752094e-03 5.610199e-01 -9.921292e-03) (0.000000e+00 0.000000e+00 0.000000e+00)) ((6.575912e+00 -2.391670e+01 2.096474e+02) (-5.576299e-01 9.208800e-02 5.640339e+00) (0.000000e+00 0.000000e+00 0.000000e+00))
0.00022       	((-6.184395e-01 2.030300e+01 2.390232e+00) (-3.741432e-03 5.608461e-01 -9.909498e-03) (0.000000e+00 0.000000e+00 0.000000e+00)) ((6.568512e+00 -2.390931e+01 2.094109e+02) (-5.575947e-01 9.195269e-02 5.638467e+00) (0.000000e+00 0.000000e+00 0.000000e+00))
0.0002225     	((-5.999668e-01 2.030312e+01 2.390138e+00) (-3.709350e-03 5.606759e-01 -9.900100e-03) (0.000000e+00 0.000000e+00 0.000000e+00)) ((6.562744e+00 -2.390452e+01 2.092177e+02) (-5.575942e-01 9.186063e-02 5.636420e+00) (0.000000e+00 0.000000e+00 0.000000e+00))
0.000225      	((-5.870891e-01 2.030443e+01 2.390015e+00) (-3.688774e-03 5.604669e-01 -9.888850e-03) (0.000000e+00 0.000000e+00 0.000000e+00)) ((6.556524e+00 -2.390108e+01 2.090952e+02) (-5.575268e-01 9.174209e-02 5.634101e+00) (0.000000e+00 0.000000e+00 0.000000e+00))
0.0002275     	((-5.813767e-01 2.030724e+01 2.389320e+00) (-3.675592e-03 5.602904e-01 -9.882604e-03) (0.000000e+00 0.000000e+00 0.000000e+00)) ((6.544137e+00 -2.389419e+01 2.090629e+02) (-5.575300e-01 9.167850e-02 5.632191e+00) (0.000000e+00 0.000000e+00 0.000000e+00))
0.00023       	((-5.822062e-01 2.031157e+01 2.388256e+00) (-3.679525e-03 5.600984e-01 -9.863777e-03) (0.000000e+00 0.000000e+00 0.000000e+00)) ((6.527595e+00 -2.388526e+01 2.091152e+02) (-5.573653e-01 9.148010e-02 5.630304e+00) (0.000000e+00 0.000000e+00 0.000000e+00))
0.0002325     	((-5.883336e-01 2.031676e+01 2.387268e+00) (-3.679511e-03 5.599365e-01 -9.840892e-03) (0.000000e+00 0.000000e+00 0.000000e+00)) ((6.511942e+00 -2.387829e+01 2.092322e+02) (-5.571727e-01 9.125292e-02 5.628688e+00) (0.000000e+00 0.000000e+00 0.000000e+00))
0.000235      	((-5.979100e-01 2.032247e+01 2.386607e+00) (-3.696394e-03 5.597666e-01 -9.812482e-03) (0.000000e+00 0.000000e+00 0.000000e+00)) ((6.499936e+00 -2.387501e+01 2.093916e+02) (-5.568840e-01 9.096053e-02 5.627166e+00) (0.000000e+00 0.000000e+00 0.000000e+00))
0.0002375     	((-6.093260e-01 2.032878e+01 2.386436e+00) (-3.712097e-03 5.596473e-01 -9.782368e-03) (0.000000e+00 0.000000e+00 0.000000e+00)) ((6.493159e+00 -2.387691e+01 2.095771e+02) (-5.566055e-01 9.065845e-02 5.626144e+00) (0.000000e+00 0.000000e+00 0.000000e+00))
0.00024       	((-6.203442e-01 2.033559e+01 2.386889e+00) (-3.741864e-03 5.595197e-01 -9.745211e-03) (0.000000e+00 0.000000e+00 0.000000e+00)) ((6.492815e+00 -2.388457e+01 2.097641e+02) (-5.562207e-01 9.027399e-02 5.625183e+00) (0.000000e+00 0.000000e+00 0.000000e+00))
0.0002425     	((-6.285971e-01 2.034234e+01 2.388250e+00) (-3.767747e-03 5.594227e-01 -9.707094e-03) (0.000000e+00 0.000000e+00 0.000000e+00)) ((6.501981e+00 -2.390014e+01 2.099224e+02) (-5.558430e-01 8.988546e-02 5.624490e+00) (0.000000e+00 0.000000e+00 0.000000e+00))
0.000245      	((-6.317160e-01 2.034833e+01 2.390935e+00) (-3.789142e-03 5.592966e-01 -9.654613e-03) (0.000000e+00 0.000000e+00 0.000000e+00)) ((6.525085e+00 -2.392688e+01 2.100201e+02) (-5.552753e-01 8.935101e-02 5.623462e+00) (0.000000e+00 0.000000e+00 0.000000e+00))
0.0002475     	((-6.282843e-01 2.035328e+01 2.394831e+00) (-3.791670e-03 5.591943e-01 -9.597314e-03) (0.000000e+00 0.000000e+00 0.000000e+00)) ((6.561086e+00 -2.396348e+01 2.100391e+02) (-5.546729e-01 8.877980e-02 5.622481e+00) (0.000000e+00 0.000000e+00 0.000000e+00))
0.00025       	((-6.175818e-01 2.035732e+01 2.399514e+00) (-3.788029e-03 5.590679e-01 -9.531430e-03) (0.000000e+00 0.000000e+00 0.000000e+00)) ((6.605469e+00 -2.400549e+01 2.099730e+02) (-5.539399e-01 8.811769e-02 5.621191e+00) (0.000000e+00 0.000000e+00 0.000000e+00))
0.0002525     	((-6.001004e-01 2.036050e+01 2.404513e+00) (-3.762578e-03 5.589762e-01 -9.453016e-03) (0.000000e+00 0.000000e+00 0.000000e+00)) ((6.653282e+00 -2.404860e+01 2.098270e+02) (-5.531020e-01 8.734329e-02 5.620025e+00) (0.000000e+00 0.000000e+00 0.000000e+00))
0.000255      	((-5.767053e-01 2.036274e+01 2.409378e+00) (-3.736437e-03 5.588641e-01 -9.361239e-03) (0.000000e+00 0.000000e+00 0.000000e+00)) ((6.699912e+00 -2.408847e+01 2.096094e+02) (-5.520888e-01 8.642992e-02 5.618642e+00) (0.000000e+00 0.000000e+00 0.000000e+00))
0.0002575     	((-5.493404e-01 2.036395e+01 2.413617e+00) (-3.689264e-03 5.587799e-01 -9.265752e-03) (0.000000e+00 0.000000e+00 0.000000e+00)) ((6.740419e+00 -2.412088e+01 2.093394e+02) (-5.510571e-01 8.549157e-02 5.617321e+00) (0.000000e+00 0.000000e+00 0.000000e+00))
0.00026       	((-5.202814e-01 2.036433e+01 2.416755e+00) (-3.628501e-03 5.586840e-01 -9.166715e-03) (0.000000e+00 0.000000e+00 0.000000e+00)) ((6.769858e+00 -2.414179e+01 2.090427e+02) (-5.499638e-01 8.451939e-02 5.615739e+00) (0.000000e+00 0.000000e+00 0.000000e+00))
0.0002625     	((-4.922543e-01 2.036426e+01 2.418296e+00) (-3.551897e-03 5.586265e-01 -9.078319e-03) (0.000000e+00 0.000000e+00 0.000000e+00)) ((6.783074e+00 -2.414726e+01 2.087517e+02) (-5.490146e-01 8.366521e-02 5.614379e+00) (0.000000e+00 0.000000e+00 0.000000e+00))
0.000265      	((-4.675976e-01 2.036425e+01 2.417995e+00) (-3.479882e-03 5.585624e-01 -9.007209e-03) (0.000000e+00 0.000000e+00 0.000000e+00)) ((6.777406e+00 -2.413545e+01 2.084960e+02) (-5.482250e-01 8.297838e-02 5.612995e+00) (0.000000e+00 0.000000e+00 0.000000e+00))
0.0002675     	((-4.485998e-01 2.036472e+01 2.416076e+00) (-3.404351e-03 5.585448e-01 -8.957477e-03) (0.000000e+00 0.000000e+00 0.000000e+00)) ((6.755019e+00 -2.410940e+01 2.083037e+02) (-5.476994e-01 8.251337e-02 5.612047e+00) (0.000000e+00 0.000000e+00 0.000000e+00))
0.00027       	((-4.367098e-01 2.036595e+01 2.412850e+00) (-3.345101e-03 5.585242e-01 -8.927118e-03) (0.000000e+00 0.000000e+00 0.000000e+00)) ((6.719047e+00 -2.407247e+01 2.081932e+02) (-5.473589e-01 8.223348e-02 5.611235e+00) (0.000000e+00 0.000000e+00 0.000000e+00))
0.0002725     	((-4.329578e-01 2.036809e+01 2.408570e+00) (-3.301147e-03 5.585497e-01 -8.920635e-03) (0.000000e+00 0.000000e+00 0.000000e+00)) ((6.672090e+00 -2.402759e+01 2.081768e+02) (-5.473045e-01 8.219212e-02 5.611048e+00) (0.000000e+00 0.000000e+00 0.000000e+00))
0.000275      	((-4.373689e-01 2.037124e+01 2.403661e+00) (-3.283372e-03 5.585774e-01 -8.927534e-03) (0.000000e+00 0.000000e+00 0.000000e+00)) ((6.618414e+00 -2.397900e+01 2.082556e+02) (-5.473779e-01 8.227294e-02 5.611157e+00) (0.000000e+00 0.000000e+00 0.000000e+00))