# Forces      
# CofR        : (0.000000e+00 0.000000e+00 0.000000e+00)
# Time        forces(pressure viscous porous)	moments(pressure viscous porous)
2.5e-06       	((1.154780e-01 1.547483e+01 4.864100e-01) (-9.694698e-03 4.900178e-01 9.750221e-03) (0.000000e+00 0.000000e+00 0.000000e+00)) ((-1.040532e+01 -4.523531e+00 1.534503e+02) (-4.084664e-01 -1.077410e-01 4.983868e+00) (0.000000e+00 0.000000e+00 0.000000e+00))
5e-06         	((-3.613671e+00 6.364044e+01 8.971277e-01) (-3.968591e-03 6.401578e-01 2.046131e-03) (0.000000e+00 0.000000e+00 0.000000e+00)) ((-5.317067e+01 -1.211991e+01 6.721394e+02) (-5.661314e-01 -2.480922e-02 6.427331e+00) (0.000000e+00 0.000000e+00 0.000000e+00))
7.5e-06       	((-1.698212e+01 1.310815e+02 8.871952e+00) (-4.438014e-03 6.234433e-01 -5.908940e-03) (0.000000e+00 0.000000e+00 0.000000e+00)) ((-4.429485e+01 -1.051455e+02 1.480626e+03) (-6.133812e-01 5.408750e-02 6.266189e+00) (0.000000e+00 0.000000e+00 0.000000e+00))
1e-05         	((-7.367396e+00 8.720391e+01 -1.609752e+00) (2.612003e-02 5.373562e-01 -3.018942e-02) (0.000000e+00 0.000000e+00 0.000000e+00)) ((-9.938837e+01 1.027071e+01 9.455656e+02) (-7.722686e-01 3.326133e-01 5.094884e+00) (0.000000e+00 0.000000e+00 0.000000e+00))
1.25e-05      	((9.214253e+00 2.185535e+01 -1.106093e+01) (2.668661e-02 5.046417e-01 -1.733403e-02) (0.000000e+00 0.000000e+00 0.000000e+00)) ((-1.247952e+02 1.224251e+02 1.255863e+02) (-6.159089e-01 2.040894e-01 4.764115e+00) (0.000000e+00 0.000000e+00 0.000000e+00))
1.5e-05       	((9.084318e+00 2.217687e+00 -7.290022e+00) (1.564151e-02 4.670838e-01 -3.470446e-03) (0.000000e+00 0.000000e+00 0.000000e+00)) ((-6.888497e+01 8.428574e+01 -6.927405e+01) (-4.488361e-01 5.262642e-02 4.503550e+00) (0.000000e+00 0.000000e+00 0.000000e+00))
1.75e-05      	((4.071483e-01 1.144525e+01 9.810418e-01) (6.988397e-03 4.535967e-01 1.094689e-02) (0.000000e+00 0.000000e+00 0.000000e+00)) ((1.056087e+00 -8.176072e+00 1.102990e+02) (-2.973529e-01 -9.997258e-02 4.457076e+00) (0.000000e+00 0.000000e+00 0.000000e+00))
2e-05         	((-4.501954e+00 2.155624e+01 4.859973e+00) (-5.231516e-03 4.455809e-01 9.635608e-03) (0.000000e+00 0.000000e+00 0.000000e+00)) ((2.739025e+01 -5.252190e+01 2.606538e+02) (-3.036524e-01 -1.007864e-01 4.500302e+00) (0.000000e+00 0.000000e+00 0.000000e+00))
2.25e-05      	((-4.345095e+00 2.110377e+01 2.972515e+00) (-1.185999e-02 4.333689e-01 -7.459613e-04) (0.000000e+00 0.000000e+00 0.000000e+00)) ((8.602577e+00 -3.365361e+01 2.544879e+02) (-3.935757e-01 -5.287407e-03 4.444708e+00) (0.000000e+00 0.000000e+00 0.000000e+00))
2.5e-05       	((-1.986871e+00 1.332016e+01 -1.118285e+00) (-1.251438e-02 4.202539e-01 -9.331245e-03) (0.000000e+00 0.000000e+00 0.000000e+00)) ((-2.367186e+01 9.739025e+00 1.530411e+02) (-4.641870e-01 7.963808e-02 4.320135e+00) (0.000000e+00 0.000000e+00 0.000000e+00))
2.75e-05      	((-4.788182e-01 7.285283e+00 -3.150129e+00) (-9.683747e-03 4.040106e-01 -1.226015e-02) (0.000000e+00 0.000000e+00 0.000000e+00)) ((-3.710445e+01 3.173124e+01 7.767443e+01) (-4.748799e-01 1.124308e-01 4.130037e+00) (0.000000e+00 0.000000e+00 0.000000e+00))
3e-05         	((-6.548838e-01 7.420255e+00 -1.910520e+00) (-7.273280e-03 3.924129e-01 -8.703158e-03) (0.000000e+00 0.000000e+00 0.000000e+00)) ((-2.465600e+01 1.922246e+01 8.082968e+01) (-4.264338e-01 8.013397e-02 3.990501e+00) (0.000000e+00 0.000000e+00 0.000000e+00))
3.25e-05      	((-1.577345e+00 1.121224e+01 6.564039e-01) (-6.888976e-03 3.891006e-01 -2.973093e-03) (0.000000e+00 0.000000e+00 0.000000e+00)) ((-3.155036e+00 -7.415369e+00 1.279340e+02) (-3.661845e-01 2.362324e-02 3.953730e+00) (0.000000e+00 0.000000e+00 0.000000e+00))
3.5e-05       	((-2.084688e+00 1.389989e+01 2.062977e+00) (-7.984754e-03 3.899681e-01 9.664855e-04) (0.000000e+00 0.000000e+00 0.000000e+00)) ((7.747038e+00 -2.206620e+01 1.597976e+02) (-3.290351e-01 -1.701560e-02 3.973263e+00) (0.000000e+00 0.000000e+00 0.000000e+00))
3.75e-05      	((-1.872229e+00 1.342518e+01 1.589484e+00) (-9.281420e-03 3.886148e-01 2.093932e-03) (0.000000e+00 0.000000e+00 0.000000e+00)) ((3.257618e+00 -1.717281e+01 1.528722e+02) (-3.178876e-01 -2.989864e-02 3.972608e+00) (0.000000e+00 0.000000e+00 0.000000e+00))
4e-05         	((-1.384641e+00 1.119430e+01 3.136308e-01) (-9.921610e-03 3.826310e-01 1.131898e-03) (0.000000e+00 0.000000e+00 0.000000e+00)) ((-7.219392e+00 -3.947887e+00 1.256986e+02) (-3.225302e-01 -2.110287e-02 3.919187e+00) (0.000000e+00 0.000000e+00 0.000000e+00))
4.25e-05      	((-1.113260e+00 9.584514e+00 -4.191506e-01) (-9.983230e-03 3.742629e-01 -2.480588e-04) (0.000000e+00 0.000000e+00 0.000000e+00)) ((-1.277763e+01 3.650338e+00 1.069328e+02) (-3.285630e-01 -7.375293e-03 3.836272e+00) (0.000000e+00 0.000000e+00 0.000000e+00))
4.5e-05       	((-1.176243e+00 9.614497e+00 -1.764275e-01) (-9.832184e-03 3.672610e-01 -7.893261e-04) (0.000000e+00 0.000000e+00 0.000000e+00)) ((-1.028317e+01 1.163348e+00 1.078954e+02) (-3.274571e-01 -1.723211e-03 3.764908e+00) (0.000000e+00 0.000000e+00 0.000000e+00))
4.75e-05      	((-1.378733e+00 1.062562e+01 5.351511e-01) (-9.940756e-03 3.637046e-01 -3.216981e-04) (0.000000e+00 0.000000e+00 0.000000e+00)) ((-4.204076e+00 -6.159206e+00 1.200300e+02) (-3.197538e-01 -6.440444e-03 3.730550e+00) (0.000000e+00 0.000000e+00 0.000000e+00))
5e-05         	((-1.497678e+00 1.144106e+01 1.026238e+00) (-1.030858e-02 3.627867e-01 6.342222e-04) (0.000000e+00 0.000000e+00 0.000000e+00)) ((-2.116979e-01 -1.120430e+01 1.293503e+02) (-3.099068e-01 -1.635994e-02 3.725135e+00) (0.000000e+00 0.000000e+00 0.000000e+00))
5.25e-05      	((-1.467082e+00 1.148220e+01 1.042736e+00) (-1.068747e-02 3.625960e-01 1.345587e-03) (0.000000e+00 0.000000e+00 0.000000e+00)) ((-1.888231e-01 -1.136049e+01 1.294341e+02) (-3.032726e-01 -2.391183e-02 3.727079e+00) (0.000000e+00 0.000000e+00 0.000000e+00))
5.5e-05       	((-1.375558e+00 1.103672e+01 8.200377e-01) (-1.075744e-02 3.618099e-01 1.462666e-03) (0.000000e+00 0.000000e+00 0.000000e+00)) ((-2.016447e+00 -9.060783e+00 1.240584e+02) (-3.018538e-01 -2.524544e-02 3.719957e+00) (0.000000e+00 0.000000e+00 0.000000e+00))
5.75e-05      	((-1.306073e+00 1.055217e+01 6.133628e-01) (-1.080841e-02 3.602090e-01 1.276369e-03) (0.000000e+00 0.000000e+00 0.000000e+00)) ((-3.594765e+00 -6.936051e+00 1.185262e+02) (-3.024676e-01 -2.346844e-02 3.704527e+00) (0.000000e+00 0.000000e+00 0.000000e+00))
6e-05         	((-1.299762e+00 1.033554e+01 5.638419e-01) (-1.068554e-02 3.582776e-01 8.613300e-04) (0.000000e+00 0.000000e+00 0.000000e+00)) ((-3.848653e+00 -6.439048e+00 1.163095e+02) (-3.050193e-01 -1.923506e-02 3.684062e+00) (0.000000e+00 0.000000e+00 0.000000e+00))
6.25e-05      	((-1.346261e+00 1.040909e+01 6.525045e-01) (-1.057806e-02 3.564890e-01 4.957183e-04) (0.000000e+00 0.000000e+00 0.000000e+00)) ((-3.017282e+00 -7.372922e+00 1.175193e+02) (-3.071590e-01 -1.549776e-02 3.665198e+00) (0.000000e+00 0.000000e+00 0.000000e+00))
6.5e-05       	((-1.411251e+00 1.060583e+01 7.774119e-01) (-1.055938e-02 3.550953e-01 2.885006e-04) (0.000000e+00 0.000000e+00 0.000000e+00)) ((-1.964714e+00 -8.687361e+00 1.201392e+02) (-3.080637e-01 -1.342356e-02 3.651168e+00) (0.000000e+00 0.000000e+00 0.000000e+00))
6.75e-05      	((-1.466833e+00 1.074964e+01 8.594656e-01) (-1.064863e-02 3.540392e-01 1.979288e-04) (0.000000e+00 0.000000e+00 0.000000e+00)) ((-1.303442e+00 -9.565037e+00 1.221312e+02) (-3.080993e-01 -1.261814e-02 3.641586e+00) (0.000000e+00 0.000000e+00 0.000000e+00))
7e-05         	((-1.506559e+00 1.076766e+01 8.828550e-01) (-1.077794e-02 3.531107e-01 1.398596e-04) (0.000000e+00 0.000000e+00 0.000000e+00)) ((-1.109391e+00 -9.840870e+00 1.227057e+02) (-3.079294e-01 -1.217461e-02 3.633662e+00) (0.000000e+00 0.000000e+00 0.000000e+00))
7.25e-05      	((-1.537276e+00 1.069377e+01 8.781537e-01) (-1.091359e-02 3.521960e-01 4.646302e-05) (0.000000e+00 0.000000e+00 0.000000e+00)) ((-1.102003e+00 -9.826437e+00 1.222717e+02) (-3.081476e-01 -1.138659e-02 3.625917e+00) (0.000000e+00 0.000000e+00 0.000000e+00))
7.5e-05       	((-1.566196e+00 1.060316e+01 8.814254e-01) (-1.099730e-02 3.512797e-01 -1.113398e-04) (0.000000e+00 0.000000e+00 0.000000e+00)) ((-9.920502e-01 -9.889412e+00 1.216531e+02) (-3.090537e-01 -9.901676e-03 3.617616e+00) (0.000000e+00 0.000000e+00 0.000000e+00))
7.75e-05      	((-1.595003e+00 1.055111e+01 9.088500e-01) (-1.105081e-02 3.503816e-01 -3.099433e-04) (0.000000e+00 0.000000e+00 0.000000e+00)) ((-6.738155e-01 -1.019397e+01 1.214178e+02) (-3.104062e-01 -7.976728e-03 3.609173e+00) (0.000000e+00 0.000000e+00 0.000000e+00))
8e-05         	((-1.620902e+00 1.054931e+01 9.560752e-01) (-1.107696e-02 3.495665e-01 -5.099239e-04) (0.000000e+00 0.000000e+00 0.000000e+00)) ((-2.054740e-01 -1.069486e+01 1.216538e+02) (-3.118574e-01 -6.011580e-03 3.601262e+00) (0.000000e+00 0.000000e+00 0.000000e+00))
8.25e-05      	((-1.638659e+00 1.057870e+01 1.009452e+00) (-1.108272e-02 3.488459e-01 -6.707931e-04) (0.000000e+00 0.000000e+00 0.000000e+00)) ((2.929012e-01 -1.125103e+01 1.221177e+02) (-3.130003e-01 -4.414044e-03 3.594083e+00) (0.000000e+00 0.000000e+00 0.000000e+00))
8.5e-05       	((-1.645529e+00 1.061328e+01 1.060122e+00) (-1.110048e-02 3.481989e-01 -7.959255e-04) (0.000000e+00 0.000000e+00 0.000000e+00)) ((7.580068e-01 -1.177102e+01 1.225225e+02) (-3.138567e-01 -3.190410e-03 3.587754e+00) (0.000000e+00 0.000000e+00 0.000000e+00))
8.75e-05      	((-1.642998e+00 1.063773e+01 1.106907e+00) (-1.113736e-02 3.475888e-01 -8.893620e-04) (0.000000e+00 0.000000e+00 0.000000e+00)) ((1.194309e+00 -1.224407e+01 1.227311e+02) (-3.144319e-01 -2.304009e-03 3.581986e+00) (0.000000e+00 0.000000e+00 0.000000e+00))
9e-05         	((-1.636183e+00 1.065059e+01 1.151929e+00) (-1.115129e-02 3.470160e-01 -9.762087e-04) (0.000000e+00 0.000000e+00 0.000000e+00)) ((1.625404e+00 -1.269578e+01 1.227815e+02) (-3.149746e-01 -1.462085e-03 3.576355e+00) (0.000000e+00 0.000000e+00 0.000000e+00))
9.25e-05      	((-1.630090e+00 1.065717e+01 1.196249e+00) (-1.116021e-02 3.464662e-01 -1.047847e-03) (0.000000e+00 0.000000e+00 0.000000e+00)) ((2.057097e+00 -1.314102e+01 1.227778e+02) (-3.153816e-01 -7.644126e-04 3.570906e+00) (0.000000e+00 0.000000e+00 0.000000e+00))
9.5e-05       	((-1.627108e+00 1.066292e+01 1.238968e+00) (-1.117259e-02 3.459640e-01 -1.107278e-03) (0.000000e+00 0.000000e+00 0.000000e+00)) ((2.474887e+00 -1.357279e+01 1.227989e+02) (-3.157040e-01 -1.863562e-04 3.565974e+00) (0.000000e+00 0.000000e+00 0.000000e+00))
9.75e-05      	((-1.627744e+00 1.067046e+01 1.277916e+00) (-1.119844e-02 3.455301e-01 -1.163287e-03) (0.000000e+00 0.000000e+00 0.000000e+00)) ((2.854222e+00 -1.396985e+01 1.228763e+02) (-3.160478e-01 3.548864e-04 3.561870e+00) (0.000000e+00 0.000000e+00 0.000000e+00))
0.0001        	((-1.632053e+00 1.068046e+01 1.311758e+00) (-1.122815e-02 3.451726e-01 -1.213252e-03) (0.000000e+00 0.000000e+00 0.000000e+00)) ((3.180818e+00 -1.431895e+01 1.230173e+02) (-3.163886e-01 8.401197e-04 3.558581e+00) (0.000000e+00 0.000000e+00 0.000000e+00))
0.0001025     	((-1.640232e+00 1.069268e+01 1.340380e+00) (-1.127215e-02 3.448818e-01 -1.264909e-03) (0.000000e+00 0.000000e+00 0.000000e+00)) ((3.453564e+00 -1.461890e+01 1.232212e+02) (-3.168051e-01 1.333952e-03 3.556117e+00) (0.000000e+00 0.000000e+00 0.000000e+00))
0.000105      	((-1.651712e+00 1.070634e+01 1.363668e+00) (-1.134321e-02 3.446628e-01 -1.311833e-03) (0.000000e+00 0.000000e+00 0.000000e+00)) ((3.671918e+00 -1.486788e+01 1.234743e+02) (-3.172334e-01 1.760454e-03 3.554656e+00) (0.000000e+00 0.000000e+00 0.000000e+00))
0.0001075     	((-1.666065e+00 1.072057e+01 1.382503e+00) (-1.142582e-02 3.444942e-01 -1.351621e-03) (0.000000e+00 0.000000e+00 0.000000e+00)) ((3.845226e+00 -1.507388e+01 1.237632e+02) (-3.176357e-01 2.100992e-03 3.553828e+00) (0.000000e+00 0.000000e+00 0.000000e+00))
0.00011       	((-1.682376e+00 1.073433e+01 1.397512e+00) (-1.153910e-02 3.443822e-01 -1.381803e-03) (0.000000e+00 0.000000e+00 0.000000e+00)) ((3.980504e+00 -1.524235e+01 1.240679e+02) (-3.179850e-01 2.327759e-03 3.553885e+00) (0.000000e+00 0.000000e+00 0.000000e+00))
0.0001125     	((-1.699206e+00 1.074641e+01 1.408794e+00) (-1.166048e-02 3.443165e-01 -1.398185e-03) (0.000000e+00 0.000000e+00 0.000000e+00)) ((4.079960e+00 -1.537312e+01 1.243615e+02) (-3.182287e-01 2.406650e-03 3.554496e+00) (0.000000e+00 0.000000e+00 0.000000e+00))
0.000115      	((-1.715254e+00 1.075644e+01 1.416657e+00) (-1.178933e-02 3.442662e-01 -1.402143e-03) (0.000000e+00 0.000000e+00 0.000000e+00)) ((4.147010e+00 -1.546814e+01 1.246268e+02) (-3.183676e-01 2.351244e-03 3.555345e+00) (0.000000e+00 0.000000e+00 0.000000e+00))
0.0001175     	((-1.729200e+00 1.076508e+01 1.420725e+00) (-1.192826e-02 3.442537e-01 -1.392642e-03) (0.000000e+00 0.000000e+00 0.000000e+00)) ((4.177170e+00 -1.552285e+01 1.248567e+02) (-3.184029e-01 2.156832e-03 3.556676e+00) (0.000000e+00 0.000000e+00 0.000000e+00))
0.00012       	((-1.740251e+00 1.077229e+01 1.421189e+00) (-1.205548e-02 3.442586e-01 -1.374880e-03) (0.000000e+00 0.000000e+00 0.000000e+00)) ((4.172239e+00 -1.553870e+01 1.250426e+02) (-3.183731e-01 1.885202e-03 3.558065e+00) (0.000000e+00 0.000000e+00 0.000000e+00))
0.0001225     	((-1.748256e+00 1.077802e+01 1.418899e+00) (-1.217555e-02 3.442634e-01 -1.352937e-03) (0.000000e+00 0.000000e+00 0.000000e+00)) ((4.140642e+00 -1.552412e+01 1.251824e+02) (-3.183039e-01 1.576844e-03 3.559381e+00) (0.000000e+00 0.000000e+00 0.000000e+00))
0.000125      	((-1.752979e+00 1.078234e+01 1.414373e+00) (-1.227920e-02 3.442690e-01 -1.322807e-03) (0.000000e+00 0.000000e+00 0.000000e+00)) ((4.087610e+00 -1.548430e+01 1.252744e+02) (-3.181455e-01 1.199570e-03 3.560536e+00) (0.000000e+00 0.000000e+00 0.000000e+00))
0.0001275     	((-1.754706e+00 1.078521e+01 1.408269e+00) (-1.235779e-02 3.442467e-01 -1.286851e-03) (0.000000e+00 0.000000e+00 0.000000e+00)) ((4.019812e+00 -1.542597e+01 1.253211e+02) (-3.179059e-01 7.815577e-04 3.561158e+00) (0.000000e+00 0.000000e+00 0.000000e+00))
0.00013       	((-1.753808e+00 1.078703e+01 1.400816e+00) (-1.243116e-02 3.441964e-01 -1.249709e-03) (0.000000e+00 0.000000e+00 0.000000e+00)) ((3.939252e+00 -1.535192e+01 1.253303e+02) (-3.176153e-01 3.622608e-04 3.561442e+00) (0.000000e+00 0.000000e+00 0.000000e+00))
0.0001325     	((-1.750984e+00 1.078840e+01 1.391977e+00) (-1.247421e-02 3.441150e-01 -1.209941e-03) (0.000000e+00 0.000000e+00 0.000000e+00)) ((3.845084e+00 -1.526249e+01 1.253151e+02) (-3.172584e-01 -6.129553e-05 3.561103e+00) (0.000000e+00 0.000000e+00 0.000000e+00))
0.000135      	((-1.747218e+00 1.078977e+01 1.382322e+00) (-1.249121e-02 3.439866e-01 -1.167049e-03) (0.000000e+00 0.000000e+00 0.000000e+00)) ((3.742667e+00 -1.516412e+01 1.252901e+02) (-3.168229e-01 -4.945613e-04 3.560028e+00) (0.000000e+00 0.000000e+00 0.000000e+00))
0.0001375     	((-1.743367e+00 1.079206e+01 1.372875e+00) (-1.250007e-02 3.438283e-01 -1.119900e-03) (0.000000e+00 0.000000e+00 0.000000e+00)) ((3.641454e+00 -1.506788e+01 1.252734e+02) (-3.162983e-01 -9.579780e-04 3.558564e+00) (0.000000e+00 0.000000e+00 0.000000e+00))
0.00014       	((-1.740554e+00 1.079573e+01 1.365275e+00) (-1.248765e-02 3.436396e-01 -1.070139e-03) (0.000000e+00 0.000000e+00 0.000000e+00)) ((3.557610e+00 -1.499124e+01 1.252806e+02) (-3.157100e-01 -1.430379e-03 3.556576e+00) (0.000000e+00 0.000000e+00 0.000000e+00))
0.0001425     	((-1.739687e+00 1.080059e+01 1.360805e+00) (-1.245951e-02 3.434298e-01 -1.015441e-03) (0.000000e+00 0.000000e+00 0.000000e+00)) ((3.504460e+00 -1.494806e+01 1.253192e+02) (-3.150395e-01 -1.934854e-03 3.554208e+00) (0.000000e+00 0.000000e+00 0.000000e+00))
0.000145      	((-1.741650e+00 1.080602e+01 1.360406e+00) (-1.240654e-02 3.431824e-01 -9.576096e-04) (0.000000e+00 0.000000e+00 0.000000e+00)) ((3.492272e+00 -1.494857e+01 1.253920e+02) (-3.142991e-01 -2.449928e-03 3.551206e+00) (0.000000e+00 0.000000e+00 0.000000e+00))
0.0001475     	((-1.746557e+00 1.081139e+01 1.363522e+00) (-1.234012e-02 3.429234e-01 -8.959661e-04) (0.000000e+00 0.000000e+00 0.000000e+00)) ((3.516233e+00 -1.498750e+01 1.254938e+02) (-3.134915e-01 -2.985081e-03 3.547939e+00) (0.000000e+00 0.000000e+00 0.000000e+00))
0.00015       	((-1.754980e+00 1.081601e+01 1.370124e+00) (-1.224597e-02 3.426286e-01 -8.452517e-04) (0.000000e+00 0.000000e+00 0.000000e+00)) ((3.576762e+00 -1.506496e+01 1.256234e+02) (-3.127575e-01 -3.388303e-03 3.544021e+00) (0.000000e+00 0.000000e+00 0.000000e+00))
0.0001525     	((-1.766747e+00 1.081949e+01 1.379629e+00) (-1.215596e-02 3.423202e-01 -8.088392e-04) (0.000000e+00 0.000000e+00 0.000000e+00)) ((3.668383e+00 -1.517510e+01 1.257757e+02) (-3.121433e-01 -3.644103e-03 3.539998e+00) (0.000000e+00 0.000000e+00 0.000000e+00))
0.000155      	((-1.781953e+00 1.082165e+01 1.391671e+00) (-1.207002e-02 3.419953e-01 -7.906477e-04) (0.000000e+00 0.000000e+00 0.000000e+00)) ((3.787416e+00 -1.531414e+01 1.259496e+02) (-3.116957e-01 -3.725938e-03 3.535846e+00) (0.000000e+00 0.000000e+00 0.000000e+00))
0.0001575     	((-1.800268e+00 1.082295e+01 1.405021e+00) (-1.201436e-02 3.416867e-01 -7.845497e-04) (0.000000e+00 0.000000e+00 0.000000e+00)) ((3.920923e+00 -1.546954e+01 1.261465e+02) (-3.113775e-01 -3.714585e-03 3.532163e+00) (0.000000e+00 0.000000e+00 0.000000e+00))
0.00016       	((-1.821674e+00 1.082366e+01 1.419223e+00) (-1.198060e-02 3.413925e-01 -7.866203e-04) (0.000000e+00 0.000000e+00 0.000000e+00)) ((4.063795e+00 -1.563637e+01 1.263693e+02) (-3.111593e-01 -3.650329e-03 3.528847e+00) (0.000000e+00 0.000000e+00 0.000000e+00))
0.0001625     	((-1.845145e+00 1.082393e+01 1.433815e+00) (-1.199179e-02 3.411447e-01 -7.889876e-04) (0.000000e+00 0.000000e+00 0.000000e+00)) ((4.211145e+00 -1.580898e+01 1.266088e+02) (-3.109800e-01 -3.619954e-03 3.526455e+00) (0.000000e+00 0.000000e+00 0.000000e+00))
0.000165      	((-1.869134e+00 1.082407e+01 1.447841e+00) (-1.203287e-02 3.409434e-01 -7.824643e-04) (0.000000e+00 0.000000e+00 0.000000e+00)) ((4.352831e+00 -1.597616e+01 1.268527e+02) (-3.107460e-01 -3.716941e-03 3.524841e+00) (0.000000e+00 0.000000e+00 0.000000e+00))
0.0001675     	((-1.892202e+00 1.082435e+01 1.460771e+00) (-1.210695e-02 3.407723e-01 -7.670125e-04) (0.000000e+00 0.000000e+00 0.000000e+00)) ((4.483076e+00 -1.613082e+01 1.270890e+02) (-3.104548e-01 -3.940203e-03 3.523875e+00) (0.000000e+00 0.000000e+00 0.000000e+00))
0.00017       	((-1.912917e+00 1.082476e+01 1.471878e+00) (-1.222474e-02 3.406478e-01 -7.385988e-04) (0.000000e+00 0.000000e+00 0.000000e+00)) ((4.594461e+00 -1.626416e+01 1.273032e+02) (-3.100668e-01 -4.330376e-03 3.523827e+00) (0.000000e+00 0.000000e+00 0.000000e+00))
0.0001725     	((-1.930171e+00 1.082531e+01 1.480580e+00) (-1.235933e-02 3.405616e-01 -6.933499e-04) (0.000000e+00 0.000000e+00 0.000000e+00)) ((4.681117e+00 -1.636929e+01 1.274841e+02) (-3.095372e-01 -4.911685e-03 3.524344e+00) (0.000000e+00 0.000000e+00 0.000000e+00))
0.000175      	((-1.943562e+00 1.082595e+01 1.486949e+00) (-1.250237e-02 3.404910e-01 -6.377823e-04) (0.000000e+00 0.000000e+00 0.000000e+00)) ((4.743788e+00 -1.644632e+01 1.276271e+02) (-3.089236e-01 -5.608247e-03 3.525113e+00) (0.000000e+00 0.000000e+00 0.000000e+00))
0.0001775     	((-1.952772e+00 1.082664e+01 1.490699e+00) (-1.265506e-02 3.404506e-01 -5.803633e-04) (0.000000e+00 0.000000e+00 0.000000e+00)) ((4.779702e+00 -1.649227e+01 1.277287e+02) (-3.083140e-01 -6.325624e-03 3.526286e+00) (0.000000e+00 0.000000e+00 0.000000e+00))
0.00018       	((-1.957872e+00 1.082706e+01 1.491909e+00) (-1.279190e-02 3.404239e-01 -5.228743e-04) (0.000000e+00 0.000000e+00 0.000000e+00)) ((4.790064e+00 -1.650824e+01 1.277861e+02) (-3.077133e-01 -7.033155e-03 3.527440e+00) (0.000000e+00 0.000000e+00 0.000000e+00))
0.0001825     	((-1.959342e+00 1.082681e+01 1.491244e+00) (-1.290762e-02 3.403845e-01 -4.746321e-04) (0.000000e+00 0.000000e+00 0.000000e+00)) ((4.781989e+00 -1.650136e+01 1.278002e+02) (-3.072025e-01 -7.629764e-03 3.528254e+00) (0.000000e+00 0.000000e+00 0.000000e+00))
0.000185      	((-1.957437e+00 1.082583e+01 1.489162e+00) (-1.300937e-02 3.403459e-01 -4.383359e-04) (0.000000e+00 0.000000e+00 0.000000e+00)) ((4.760303e+00 -1.647678e+01 1.277729e+02) (-3.068077e-01 -8.086997e-03 3.528933e+00) (0.000000e+00 0.000000e+00 0.000000e+00))
0.0001875     	((-1.952424e+00 1.082432e+01 1.486361e+00) (-1.308362e-02 3.402988e-01 -4.104321e-04) (0.000000e+00 0.000000e+00 0.000000e+00)) ((4.731927e+00 -1.644193e+01 1.277089e+02) (-3.064914e-01 -8.436866e-03 3.529245e+00) (0.000000e+00 0.000000e+00 0.000000e+00))
0.00019       	((-1.944653e+00 1.082283e+01 1.483417e+00) (-1.313241e-02 3.402407e-01 -3.926291e-04) (0.000000e+00 0.000000e+00 0.000000e+00)) ((4.702229e+00 -1.640313e+01 1.276170e+02) (-3.062678e-01 -8.660460e-03 3.529186e+00) (0.000000e+00 0.000000e+00 0.000000e+00))
0.0001925     	((-1.934778e+00 1.082200e+01 1.480776e+00) (-1.315388e-02 3.401632e-01 -3.847662e-04) (0.000000e+00 0.000000e+00 0.000000e+00)) ((4.675145e+00 -1.636567e+01 1.275102e+02) (-3.061273e-01 -8.761100e-03 3.528652e+00) (0.000000e+00 0.000000e+00 0.000000e+00))
0.000195      	((-1.923899e+00 1.082212e+01 1.479102e+00) (-1.315447e-02 3.400688e-01 -3.859039e-04) (0.000000e+00 0.000000e+00 0.000000e+00)) ((4.657185e+00 -1.633753e+01 1.274026e+02) (-3.060602e-01 -8.752886e-03 3.527733e+00) (0.000000e+00 0.000000e+00 0.000000e+00))
0.0001975     	((-1.913709e+00 1.082331e+01 1.479418e+00) (-1.312983e-02 3.399524e-01 -4.046477e-04) (0.000000e+00 0.000000e+00 0.000000e+00)) ((4.658483e+00 -1.633054e+01 1.273122e+02) (-3.061628e-01 -8.549657e-03 3.526331e+00) (0.000000e+00 0.000000e+00 0.000000e+00))
0.0002        	((-1.905048e+00 1.082524e+01 1.481423e+00) (-1.309931e-02 3.398429e-01 -4.366449e-04) (0.000000e+00 0.000000e+00 0.000000e+00)) ((4.676471e+00 -1.634282e+01 1.272445e+02) (-3.064053e-01 -8.209220e-03 3.524933e+00) (0.000000e+00 0.000000e+00 0.000000e+00))
0.0002025     	((-1.899029e+00 1.082735e+01 1.485793e+00) (-1.305965e-02 3.397251e-01 -4.829541e-04) (0.000000e+00 0.000000e+00 0.000000e+00)) ((4.718455e+00 -1.638197e+01 1.272050e+02) (-3.068019e-01 -7.726088e-03 3.523356e+00) (0.000000e+00 0.000000e+00 0.000000e+00))
0.000205      	((-1.895816e+00 1.082913e+01 1.492439e+00) (-1.303896e-02 3.396129e-01 -5.390455e-04) (0.000000e+00 0.000000e+00 0.000000e+00)) ((4.783937e+00 -1.644730e+01 1.271902e+02) (-3.073089e-01 -7.158252e-03 3.522022e+00) (0.000000e+00 0.000000e+00 0.000000e+00))
0.0002075     	((-1.894823e+00 1.083103e+01 1.500277e+00) (-1.302385e-02 3.395135e-01 -5.907249e-04) (0.000000e+00 0.000000e+00 0.000000e+00)) ((4.861375e+00 -1.652739e+01 1.271989e+02) (-3.077805e-01 -6.646454e-03 3.520873e+00) (0.000000e+00 0.000000e+00 0.000000e+00))
0.00021       	((-1.895806e+00 1.083280e+01 1.508870e+00) (-1.301560e-02 3.394093e-01 -6.342811e-04) (0.000000e+00 0.000000e+00 0.000000e+00)) ((4.946485e+00 -1.661732e+01 1.272259e+02) (-3.081738e-01 -6.229012e-03 3.519746e+00) (0.000000e+00 0.000000e+00 0.000000e+00))
0.0002125     	((-1.898277e+00 1.083377e+01 1.517671e+00) (-1.302827e-02 3.393203e-01 -6.671990e-04) (0.000000e+00 0.000000e+00 0.000000e+00)) ((5.034355e+00 -1.671099e+01 1.272599e+02) (-3.084698e-01 -5.934269e-03 3.518981e+00) (0.000000e+00 0.000000e+00 0.000000e+00))
0.000215      	((-1.901666e+00 1.083371e+01 1.526222e+00) (-1.304325e-02 3.392359e-01 -6.861224e-04) (0.000000e+00 0.000000e+00 0.000000e+00)) ((5.120526e+00 -1.680307e+01 1.272927e+02) (-3.086297e-01 -5.787732e-03 3.518288e+00) (0.000000e+00 0.000000e+00 0.000000e+00))
0.0002175     	((-1.905308e+00 1.083268e+01 1.534153e+00) (-1.306546e-02 3.391554e-01 -6.913637e-04) (0.000000e+00 0.000000e+00 0.000000e+00)) ((5.201215e+00 -1.688905e+01 1.273182e+02) (-3.086562e-01 -5.784237e-03 3.517707e+00) (0.000000e+00 0.000000e+00 0.000000e+00))
0.00022       	((-1.908690e+00 1.083073e+01 1.541115e+00) (-1.308762e-02 3.390750e-01 -6.819500e-04) (0.000000e+00 0.000000e+00 0.000000e+00)) ((5.272861e+00 -1.696483e+01 1.273320e+02) (-3.085332e-01 -5.928072e-03 3.517128e+00) (0.000000e+00 0.000000e+00 0.000000e+00))
0.0002225     	((-1.911466e+00 1.082796e+01 1.546884e+00) (-1.310694e-02 3.389930e-01 -6.586930e-04) (0.000000e+00 0.000000e+00 0.000000e+00)) ((5.333178e+00 -1.702779e+01 1.273314e+02) (-3.082666e-01 -6.205064e-03 3.516503e+00) (0.000000e+00 0.000000e+00 0.000000e+00))
0.000225      	((-1.913464e+00 1.082442e+01 1.551348e+00) (-1.311971e-02 3.389019e-01 -6.240270e-04) (0.000000e+00 0.000000e+00 0.000000e+00)) ((5.381048e+00 -1.707659e+01 1.273153e+02) (-3.078738e-01 -6.588161e-03 3.515721e+00) (0.000000e+00 0.000000e+00 0.000000e+00))
0.0002275     	((-1.914454e+00 1.082038e+01 1.554092e+00) (-1.312585e-02 3.388059e-01 -5.804856e-04) (0.000000e+00 0.000000e+00 0.000000e+00)) ((5.412117e+00 -1.710693e+01 1.272840e+02) (-3.073809e-01 -7.049455e-03 3.514822e+00) (0.000000e+00 0.000000e+00 0.000000e+00))
0.00023       	((-1.914563e+00 1.081614e+01 1.555203e+00) (-1.312237e-02 3.386924e-01 -5.340179e-04) (0.000000e+00 0.000000e+00 0.000000e+00)) ((5.426886e+00 -1.711974e+01 1.272419e+02) (-3.068440e-01 -7.528251e-03 3.513650e+00) (0.000000e+00 0.000000e+00 0.000000e+00))
0.0002325     	((-1.913631e+00 1.081216e+01 1.554372e+00) (-1.311183e-02 3.385873e-01 -4.831570e-04) (0.000000e+00 0.000000e+00 0.000000e+00)) ((5.421872e+00 -1.711207e+01 1.271917e+02) (-3.062573e-01 -8.039198e-03 3.512490e+00) (0.000000e+00 0.000000e+00 0.000000e+00))
0.000235      	((-1.912277e+00 1.080850e+01 1.552420e+00) (-1.308573e-02 3.384617e-01 -4.299568e-04) (0.000000e+00 0.000000e+00 0.000000e+00)) ((5.405264e+00 -1.709259e+01 1.271405e+02) (-3.056294e-01 -8.561171e-03 3.510968e+00) (0.000000e+00 0.000000e+00 0.000000e+00))
0.0002375     	((-1.910597e+00 1.080502e+01 1.549746e+00) (-1.306263e-02 3.383272e-01 -3.737838e-04) (0.000000e+00 0.000000e+00 0.000000e+00)) ((5.381254e+00 -1.706557e+01 1.270878e+02) (-3.049556e-01 -9.105401e-03 3.509386e+00) (0.000000e+00 0.000000e+00 0.000000e+00))
0.00024       	((-1.908783e+00 1.080148e+01 1.546724e+00) (-1.303255e-02 3.381898e-01 -3.134888e-04) (0.000000e+00 0.000000e+00 0.000000e+00)) ((5.353899e+00 -1.703513e+01 1.270330e+02) (-3.042241e-01 -9.681949e-03 3.507704e+00) (0.000000e+00 0.000000e+00 0.000000e+00))
0.0002425     	((-1.907255e+00 1.079788e+01 1.543884e+00) (-1.299564e-02 3.380361e-01 -2.498336e-04) (0.000000e+00 0.000000e+00 0.000000e+00)) ((5.328511e+00 -1.700690e+01 1.269805e+02) (-3.034391e-01 -1.028504e-02 3.505790e+00) (0.000000e+00 0.000000e+00 0.000000e+00))
0.000245      	((-1.906142e+00 1.079447e+01 1.541093e+00) (-1.295824e-02 3.378835e-01 -1.809599e-04) (0.000000e+00 0.000000e+00 0.000000e+00)) ((5.303597e+00 -1.697978e+01 1.269341e+02) (-3.025917e-01 -1.093860e-02 3.503882e+00) (0.000000e+00 0.000000e+00 0.000000e+00))
0.0002475     	((-1.905860e+00 1.079143e+01 1.538620e+00) (-1.291596e-02 3.377170e-01 -1.102598e-04) (0.000000e+00 0.000000e+00 0.000000e+00)) ((5.281667e+00 -1.695668e+01 1.268998e+02) (-3.017165e-01 -1.161112e-02 3.501787e+00) (0.000000e+00 0.000000e+00 0.000000e+00))
0.00025       	((-1.906311e+00 1.078881e+01 1.536225e+00) (-1.289001e-02 3.375574e-01 -3.925327e-05) (0.000000e+00 0.000000e+00 0.000000e+00)) ((5.260251e+00 -1.693518e+01 1.268772e+02) (-3.008361e-01 -1.229403e-02 3.499924e+00) (0.000000e+00 0.000000e+00 0.000000e+00))
0.0002525     	((-1.907236e+00 1.078661e+01 1.533493e+00) (-1.286011e-02 3.374068e-01 3.493122e-05) (0.000000e+00 0.000000e+00 0.000000e+00)) ((5.235175e+00 -1.691093e+01 1.268636e+02) (-2.999220e-01 -1.301176e-02 3.498113e+00) (0.000000e+00 0.000000e+00 0.000000e+00))
0.000255      	((-1.908754e+00 1.078476e+01 1.530720e+00) (-1.283168e-02 3.372480e-01 1.094557e-04) (0.000000e+00 0.000000e+00 0.000000e+00)) ((5.209429e+00 -1.688675e+01 1.268597e+02) (-2.989998e-01 -1.373809e-02 3.496235e+00) (0.000000e+00 0.000000e+00 0.000000e+00))
0.0002575     	((-1.910548e+00 1.078320e+01 1.527752e+00) (-1.281970e-02 3.371005e-01 1.821128e-04) (0.000000e+00 0.000000e+00 0.000000e+00)) ((5.181500e+00 -1.686077e+01 1.268615e+02) (-2.980991e-01 -1.445425e-02 3.494637e+00) (0.000000e+00 0.000000e+00 0.000000e+00))
0.00026       	((-1.912196e+00 1.078194e+01 1.524107e+00) (-1.280607e-02 3.369703e-01 2.557046e-04) (0.000000e+00 0.000000e+00 0.000000e+00)) ((5.146565e+00 -1.682786e+01 1.268650e+02) (-2.971940e-01 -1.518345e-02 3.493198e+00) (0.000000e+00 0.000000e+00 0.000000e+00))
0.0002625     	((-1.913770e+00 1.078089e+01 1.520076e+00) (-1.279333e-02 3.368404e-01 3.230874e-04) (0.000000e+00 0.000000e+00 0.000000e+00)) ((5.107566e+00 -1.679071e+01 1.268700e+02) (-2.963566e-01 -1.585588e-02 3.491772e+00) (0.000000e+00 0.000000e+00 0.000000e+00))
0.000265      	((-1.914995e+00 1.077994e+01 1.515571e+00) (-1.279651e-02 3.367281e-01 3.819731e-04) (0.000000e+00 0.000000e+00 0.000000e+00)) ((5.063714e+00 -1.674823e+01 1.268726e+02) (-2.956182e-01 -1.645128e-02 3.490683e+00) (0.000000e+00 0.000000e+00 0.000000e+00))
0.0002675     	((-1.915579e+00 1.077901e+01 1.510356e+00) (-1.279786e-02 3.366420e-01 4.332923e-04) (0.000000e+00 0.000000e+00 0.000000e+00)) ((5.012738e+00 -1.669785e+01 1.268690e+02) (-2.949758e-01 -1.697271e-02 3.489839e+00) (0.000000e+00 0.000000e+00 0.000000e+00))
0.00027       	((-1.915655e+00 1.077798e+01 1.504759e+00) (-1.279793e-02 3.365506e-01 4.795806e-04) (0.000000e+00 0.000000e+00 0.000000e+00)) ((4.958065e+00 -1.664282e+01 1.268595e+02) (-2.943823e-01 -1.744605e-02 3.488930e+00) (0.000000e+00 0.000000e+00 0.000000e+00))
0.0002725     	((-1.915041e+00 1.077687e+01 1.498727e+00) (-1.281096e-02 3.364675e-01 5.226629e-04) (0.000000e+00 0.000000e+00 0.000000e+00)) ((4.899163e+00 -1.658249e+01 1.268422e+02) (-2.938206e-01 -1.789258e-02 3.488236e+00) (0.000000e+00 0.000000e+00 0.000000e+00))
0.000275      	((-1.913683e+00 1.077574e+01 1.492329e+00) (-1.281804e-02 3.363896e-01 5.647114e-04) (0.000000e+00 0.000000e+00 0.000000e+00)) ((4.836651e+00 -1.651759e+01 1.268174e+02) (-2.932696e-01 -1.832722e-02 3.487536e+00) (0.000000e+00 0.000000e+00 0.000000e+00))