# Forces      
# CofR        : (0.000000e+00 0.000000e+00 0.000000e+00)
# Time        forces(pressure viscous porous)	moments(pressure viscous porous)
2.5e-06       	((1.233132e+00 1.074590e+01 6.219655e-02) (5.249140e-03 3.846859e-01 6.248223e-03) (0.000000e+00 0.000000e+00 0.000000e+00)) ((-8.780728e+00 4.293803e-01 9.492121e+01) (-3.009855e-01 -5.709758e-02 3.787142e+00) (0.000000e+00 0.000000e+00 0.000000e+00))
5e-06         	((4.541266e+00 4.688231e+01 -1.460254e+00) (5.724418e-03 4.890365e-01 -6.905630e-05) (0.000000e+00 0.000000e+00 0.000000e+00)) ((-5.462849e+01 1.801250e+01 4.222716e+02) (-4.235317e-01 5.459208e-03 4.823076e+00) (0.000000e+00 0.000000e+00 0.000000e+00))
7.5e-06       	((1.272155e+00 8.608049e+01 6.121818e-01) (7.898738e-03 4.477665e-01 -4.464985e-03) (0.000000e+00 0.000000e+00 0.000000e+00)) ((-7.224397e+01 -5.358678e+00 8.474071e+02) (-4.262216e-01 5.038610e-02 4.389381e+00) (0.000000e+00 0.000000e+00 0.000000e+00))
1e-05         	((1.259551e+00 5.565687e+01 -3.886594e+00) (6.788762e-03 3.863871e-01 -1.933444e-02) (0.000000e+00 0.000000e+00 0.000000e+00)) ((-8.573219e+01 3.995572e+01 5.435475e+02) (-5.187815e-01 1.959442e-01 3.787983e+00) (0.000000e+00 0.000000e+00 0.000000e+00))
1.25e-05      	((3.278217e+00 1.646965e+01 -7.114656e+00) (-3.793222e-03 3.862618e-01 5.272293e-03) (0.000000e+00 0.000000e+00 0.000000e+00)) ((-8.103315e+01 7.409887e+01 1.311148e+02) (-2.845347e-01 -6.032828e-02 3.891387e+00) (0.000000e+00 0.000000e+00 0.000000e+00))
1.5e-05       	((1.267811e+00 4.801371e+00 -3.426532e+00) (-5.707319e-03 3.815849e-01 1.520992e-02) (0.000000e+00 0.000000e+00 0.000000e+00)) ((-3.538370e+01 3.539740e+01 3.486917e+01) (-1.890603e-01 -1.604396e-01 3.866062e+00) (0.000000e+00 0.000000e+00 0.000000e+00))
1.75e-05      	((-4.262760e-01 9.190420e+00 1.427834e+00) (-1.161229e-03 3.509489e-01 1.288889e-02) (0.000000e+00 0.000000e+00 0.000000e+00)) ((7.068011e+00 -1.448235e+01 9.617575e+01) (-1.798756e-01 -1.307573e-01 3.516981e+00) (0.000000e+00 0.000000e+00 0.000000e+00))
2e-05         	((-7.680579e-01 1.428107e+01 3.290578e+00) (-1.613825e-03 3.317416e-01 7.869173e-03) (0.000000e+00 0.000000e+00 0.000000e+00)) ((2.003414e+01 -3.323647e+01 1.506583e+02) (-2.103534e-01 -8.090709e-02 3.330323e+00) (0.000000e+00 0.000000e+00 0.000000e+00))
2.25e-05      	((-4.813105e-01 1.384262e+01 2.028232e+00) (8.094788e-05 3.028930e-01 -3.370091e-03) (0.000000e+00 0.000000e+00 0.000000e+00)) ((7.825617e+00 -2.031350e+01 1.433511e+02) (-2.890374e-01 3.324439e-02 3.026427e+00) (0.000000e+00 0.000000e+00 0.000000e+00))
2.5e-05       	((-2.069436e-02 9.358834e+00 -4.678709e-01) (-1.071879e-03 2.989247e-01 -6.494001e-03) (0.000000e+00 0.000000e+00 0.000000e+00)) ((-1.238427e+01 5.013809e+00 9.393182e+01) (-3.167143e-01 6.257392e-02 2.997864e+00) (0.000000e+00 0.000000e+00 0.000000e+00))
2.75e-05      	((1.719208e-02 5.807791e+00 -1.629502e+00) (-3.189980e-03 2.995622e-01 -6.058941e-03) (0.000000e+00 0.000000e+00 0.000000e+00)) ((-2.026465e+01 1.659114e+01 5.807426e+01) (-3.151997e-01 5.546320e-02 3.024542e+00) (0.000000e+00 0.000000e+00 0.000000e+00))
3e-05         	((-1.739510e-01 5.722852e+00 -1.033638e+00) (-3.323473e-03 2.953140e-01 -4.609040e-03) (0.000000e+00 0.000000e+00 0.000000e+00)) ((-1.417798e+01 1.044123e+01 5.912095e+01) (-2.963943e-01 4.087608e-02 2.983618e+00) (0.000000e+00 0.000000e+00 0.000000e+00))
3.25e-05      	((-4.049842e-01 7.765978e+00 2.293931e-01) (-4.282551e-03 2.939541e-01 -1.392590e-03) (0.000000e+00 0.000000e+00 0.000000e+00)) ((-3.667794e+00 -2.369111e+00 8.180475e+01) (-2.635186e-01 7.920381e-03 2.979439e+00) (0.000000e+00 0.000000e+00 0.000000e+00))
3.5e-05       	((-5.964045e-01 9.386970e+00 9.537640e-01) (-4.512415e-03 2.938220e-01 8.022201e-04) (0.000000e+00 0.000000e+00 0.000000e+00)) ((1.795490e+00 -9.767676e+00 9.987156e+01) (-2.421504e-01 -1.403273e-02 2.980192e+00) (0.000000e+00 0.000000e+00 0.000000e+00))
3.75e-05      	((-6.758905e-01 9.295332e+00 7.870751e-01) (-3.591878e-03 2.911183e-01 6.866724e-04) (0.000000e+00 0.000000e+00 0.000000e+00)) ((7.848011e-02 -8.175736e+00 9.973923e+01) (-2.408914e-01 -1.174469e-02 2.943977e+00) (0.000000e+00 0.000000e+00 0.000000e+00))
4e-05         	((-6.235466e-01 8.045836e+00 1.615965e-01) (-2.610086e-03 2.856862e-01 -4.874939e-04) (0.000000e+00 0.000000e+00 0.000000e+00)) ((-4.968245e+00 -1.875714e+00 8.675223e+01) (-2.473608e-01 1.123255e-03 2.880008e+00) (0.000000e+00 0.000000e+00 0.000000e+00))
4.25e-05      	((-5.003839e-01 7.006476e+00 -2.282370e-01) (-1.616274e-03 2.787347e-01 -2.128305e-03) (0.000000e+00 0.000000e+00 0.000000e+00)) ((-7.798675e+00 2.148476e+00 7.514941e+01) (-2.568514e-01 1.861330e-02 2.800861e+00) (0.000000e+00 0.000000e+00 0.000000e+00))
4.5e-05       	((-3.666337e-01 6.860246e+00 -1.479471e-01) (-2.031328e-03 2.750270e-01 -1.797678e-03) (0.000000e+00 0.000000e+00 0.000000e+00)) ((-6.806041e+00 1.496813e+00 7.233891e+01) (-2.507190e-01 1.480139e-02 2.767912e+00) (0.000000e+00 0.000000e+00 0.000000e+00))
4.75e-05      	((-2.906311e-01 7.364270e+00 1.910855e-01) (-2.473939e-03 2.731070e-01 -1.132723e-03) (0.000000e+00 0.000000e+00 0.000000e+00)) ((-3.914742e+00 -1.797949e+00 7.658447e+01) (-2.428534e-01 7.599659e-03 2.753125e+00) (0.000000e+00 0.000000e+00 0.000000e+00))
5e-05         	((-2.859822e-01 7.875529e+00 4.628862e-01) (-2.788286e-03 2.726833e-01 -4.224294e-04) (0.000000e+00 0.000000e+00 0.000000e+00)) ((-1.750450e+00 -4.505713e+00 8.161765e+01) (-2.358690e-01 1.309813e-04 2.751990e+00) (0.000000e+00 0.000000e+00 0.000000e+00))
5.25e-05      	((-3.232228e-01 7.989088e+00 5.157964e-01) (-2.968375e-03 2.727623e-01 1.230550e-04) (0.000000e+00 0.000000e+00 0.000000e+00)) ((-1.395968e+00 -5.082851e+00 8.310764e+01) (-2.309494e-01 -5.526039e-03 2.754579e+00) (0.000000e+00 0.000000e+00 0.000000e+00))
5.5e-05       	((-3.429388e-01 7.783546e+00 4.232018e-01) (-3.138448e-03 2.724059e-01 4.836449e-04) (0.000000e+00 0.000000e+00 0.000000e+00)) ((-2.158497e+00 -4.195917e+00 8.124086e+01) (-2.273720e-01 -9.306814e-03 2.752739e+00) (0.000000e+00 0.000000e+00 0.000000e+00))
5.75e-05      	((-3.301968e-01 7.506989e+00 3.189431e-01) (-3.258653e-03 2.715259e-01 6.100606e-04) (0.000000e+00 0.000000e+00 0.000000e+00)) ((-2.937989e+00 -3.153850e+00 7.833854e+01) (-2.256199e-01 -1.070508e-02 2.745206e+00) (0.000000e+00 0.000000e+00 0.000000e+00))
6e-05         	((-2.851251e-01 7.358017e+00 2.879250e-01) (-3.401716e-03 2.702468e-01 6.546710e-04) (0.000000e+00 0.000000e+00 0.000000e+00)) ((-3.093959e+00 -2.800289e+00 7.638392e+01) (-2.243138e-01 -1.129784e-02 2.733930e+00) (0.000000e+00 0.000000e+00 0.000000e+00))
6.25e-05      	((-2.359985e-01 7.362000e+00 3.297835e-01) (-3.483749e-03 2.689900e-01 6.809227e-04) (0.000000e+00 0.000000e+00 0.000000e+00)) ((-2.673485e+00 -3.159696e+00 7.591667e+01) (-2.232095e-01 -1.165183e-02 2.722288e+00) (0.000000e+00 0.000000e+00 0.000000e+00))
6.5e-05       	((-1.943049e-01 7.451168e+00 4.001330e-01) (-3.551693e-03 2.678746e-01 7.250966e-04) (0.000000e+00 0.000000e+00 0.000000e+00)) ((-2.061062e+00 -3.807645e+00 7.637682e+01) (-2.220467e-01 -1.217120e-02 2.711896e+00) (0.000000e+00 0.000000e+00 0.000000e+00))
6.75e-05      	((-1.674020e-01 7.542510e+00 4.572507e-01) (-3.561190e-03 2.670845e-01 7.420908e-04) (0.000000e+00 0.000000e+00 0.000000e+00)) ((-1.594689e+00 -4.338477e+00 7.700955e+01) (-2.213886e-01 -1.236067e-02 2.704156e+00) (0.000000e+00 0.000000e+00 0.000000e+00))
7e-05         	((-1.531540e-01 7.582357e+00 4.845194e-01) (-3.559863e-03 2.663773e-01 7.330377e-04) (0.000000e+00 0.000000e+00 0.000000e+00)) ((-1.380706e+00 -4.587648e+00 7.725849e+01) (-2.210859e-01 -1.227287e-02 2.697112e+00) (0.000000e+00 0.000000e+00 0.000000e+00))
7.25e-05      	((-1.498071e-01 7.562870e+00 4.927137e-01) (-3.559261e-03 2.656601e-01 6.965750e-04) (0.000000e+00 0.000000e+00 0.000000e+00)) ((-1.297453e+00 -4.658871e+00 7.702691e+01) (-2.210557e-01 -1.190592e-02 2.689966e+00) (0.000000e+00 0.000000e+00 0.000000e+00))
7.5e-05       	((-1.459393e-01 7.515298e+00 4.998158e-01) (-3.530494e-03 2.649740e-01 6.000284e-04) (0.000000e+00 0.000000e+00 0.000000e+00)) ((-1.190508e+00 -4.720397e+00 7.651103e+01) (-2.216844e-01 -1.090230e-02 2.682846e+00) (0.000000e+00 0.000000e+00 0.000000e+00))
7.75e-05      	((-1.364233e-01 7.476048e+00 5.177062e-01) (-3.450390e-03 2.643080e-01 4.862739e-04) (0.000000e+00 0.000000e+00 0.000000e+00)) ((-9.782781e-01 -4.883825e+00 7.602058e+01) (-2.225227e-01 -9.679907e-03 2.675412e+00) (0.000000e+00 0.000000e+00 0.000000e+00))
8e-05         	((-1.186373e-01 7.467491e+00 5.446074e-01) (-3.371376e-03 2.635814e-01 3.596586e-04) (0.000000e+00 0.000000e+00 0.000000e+00)) ((-7.026178e-01 -5.130208e+00 7.575191e+01) (-2.234583e-01 -8.319562e-03 2.667356e+00) (0.000000e+00 0.000000e+00 0.000000e+00))
8.25e-05      	((-9.961954e-02 7.488066e+00 5.766929e-01) (-3.255523e-03 2.628838e-01 2.189994e-04) (0.000000e+00 0.000000e+00 0.000000e+00)) ((-4.033494e-01 -5.427896e+00 7.575969e+01) (-2.245503e-01 -6.788941e-03 2.659208e+00) (0.000000e+00 0.000000e+00 0.000000e+00))
8.5e-05       	((-8.254380e-02 7.523979e+00 6.104593e-01) (-3.147529e-03 2.622162e-01 7.749797e-05) (0.000000e+00 0.000000e+00 0.000000e+00)) ((-1.021857e-01 -5.747406e+00 7.593985e+01) (-2.256671e-01 -5.255285e-03 2.651412e+00) (0.000000e+00 0.000000e+00 0.000000e+00))
8.75e-05      	((-7.348539e-02 7.558924e+00 6.463233e-01) (-3.007277e-03 2.616156e-01 -8.326786e-05) (0.000000e+00 0.000000e+00 0.000000e+00)) ((2.207404e-01 -6.098576e+00 7.619118e+01) (-2.270390e-01 -3.512301e-03 2.643951e+00) (0.000000e+00 0.000000e+00 0.000000e+00))
9e-05         	((-7.162635e-02 7.585268e+00 6.824937e-01) (-2.868670e-03 2.610285e-01 -2.408084e-04) (0.000000e+00 0.000000e+00 0.000000e+00)) ((5.558863e-01 -6.462773e+00 7.643034e+01) (-2.283811e-01 -1.812136e-03 2.636622e+00) (0.000000e+00 0.000000e+00 0.000000e+00))
9.25e-05      	((-7.749636e-02 7.600544e+00 7.186574e-01) (-2.723358e-03 2.604850e-01 -3.858482e-04) (0.000000e+00 0.000000e+00 0.000000e+00)) ((9.023073e-01 -6.835328e+00 7.663783e+01) (-2.296316e-01 -2.446058e-04 2.629661e+00) (0.000000e+00 0.000000e+00 0.000000e+00))
9.5e-05       	((-8.890545e-02 7.607688e+00 7.532226e-01) (-2.606697e-03 2.599428e-01 -5.329301e-04) (0.000000e+00 0.000000e+00 0.000000e+00)) ((1.241554e+00 -7.197559e+00 7.682147e+01) (-2.308935e-01 1.315192e-03 2.622997e+00) (0.000000e+00 0.000000e+00 0.000000e+00))
9.75e-05      	((-1.062520e-01 7.610315e+00 7.872616e-01) (-2.510351e-03 2.594227e-01 -6.724622e-04) (0.000000e+00 0.000000e+00 0.000000e+00)) ((1.580474e+00 -7.559246e+00 7.702101e+01) (-2.320942e-01 2.778345e-03 2.616770e+00) (0.000000e+00 0.000000e+00 0.000000e+00))
0.0001        	((-1.281977e-01 7.613515e+00 8.212887e-01) (-2.461695e-03 2.589286e-01 -8.059380e-04) (0.000000e+00 0.000000e+00 0.000000e+00)) ((1.919568e+00 -7.923999e+00 7.727405e+01) (-2.332458e-01 4.141331e-03 2.611291e+00) (0.000000e+00 0.000000e+00 0.000000e+00))
0.0001025     	((-1.552153e-01 7.620007e+00 8.557637e-01) (-2.451980e-03 2.584916e-01 -9.394834e-04) (0.000000e+00 0.000000e+00 0.000000e+00)) ((2.260117e+00 -8.295976e+00 7.761243e+01) (-2.344403e-01 5.470862e-03 2.606793e+00) (0.000000e+00 0.000000e+00 0.000000e+00))
0.000105      	((-1.854275e-01 7.630177e+00 8.889169e-01) (-2.497034e-03 2.581001e-01 -1.074416e-03) (0.000000e+00 0.000000e+00 0.000000e+00)) ((2.583876e+00 -8.655909e+00 7.802124e+01) (-2.356804e-01 6.770434e-03 2.603312e+00) (0.000000e+00 0.000000e+00 0.000000e+00))
0.0001075     	((-2.185227e-01 7.641756e+00 9.193199e-01) (-2.574240e-03 2.577778e-01 -1.214746e-03) (0.000000e+00 0.000000e+00 0.000000e+00)) ((2.878003e+00 -8.988941e+00 7.847388e+01) (-2.370251e-01 8.096012e-03 2.600868e+00) (0.000000e+00 0.000000e+00 0.000000e+00))
0.00011       	((-2.506148e-01 7.653226e+00 9.446790e-01) (-2.698601e-03 2.575019e-01 -1.349147e-03) (0.000000e+00 0.000000e+00 0.000000e+00)) ((3.120845e+00 -9.269361e+00 7.891584e+01) (-2.383444e-01 9.326117e-03 2.599369e+00) (0.000000e+00 0.000000e+00 0.000000e+00))
0.0001125     	((-2.805140e-01 7.663381e+00 9.641522e-01) (-2.836789e-03 2.573086e-01 -1.483624e-03) (0.000000e+00 0.000000e+00 0.000000e+00)) ((3.304684e+00 -9.487678e+00 7.932194e+01) (-2.397298e-01 1.054148e-02 2.598851e+00) (0.000000e+00 0.000000e+00 0.000000e+00))
0.000115      	((-3.053499e-01 7.671973e+00 9.782428e-01) (-3.010693e-03 2.571584e-01 -1.603706e-03) (0.000000e+00 0.000000e+00 0.000000e+00)) ((3.435182e+00 -9.647474e+00 7.966096e+01) (-2.410085e-01 1.158364e-02 2.599117e+00) (0.000000e+00 0.000000e+00 0.000000e+00))
0.0001175     	((-3.261497e-01 7.678606e+00 9.893643e-01) (-3.178611e-03 2.570672e-01 -1.710989e-03) (0.000000e+00 0.000000e+00 0.000000e+00)) ((3.537142e+00 -9.774003e+00 7.993855e+01) (-2.422032e-01 1.249918e-02 2.599922e+00) (0.000000e+00 0.000000e+00 0.000000e+00))
0.00012       	((-3.415912e-01 7.683504e+00 9.983921e-01) (-3.358123e-03 2.569788e-01 -1.799311e-03) (0.000000e+00 0.000000e+00 0.000000e+00)) ((3.619490e+00 -9.875936e+00 8.014405e+01) (-2.432041e-01 1.321644e-02 2.600865e+00) (0.000000e+00 0.000000e+00 0.000000e+00))
0.0001225     	((-3.532295e-01 7.686423e+00 1.005751e+00) (-3.525640e-03 2.569169e-01 -1.863526e-03) (0.000000e+00 0.000000e+00 0.000000e+00)) ((3.686415e+00 -9.958915e+00 8.029030e+01) (-2.439751e-01 1.369790e-02 2.601956e+00) (0.000000e+00 0.000000e+00 0.000000e+00))
0.000125      	((-3.601854e-01 7.687714e+00 1.011138e+00) (-3.692486e-03 2.568433e-01 -1.899420e-03) (0.000000e+00 0.000000e+00 0.000000e+00)) ((3.734595e+00 -1.001963e+01 8.037255e+01) (-2.444384e-01 1.389479e-02 2.602918e+00) (0.000000e+00 0.000000e+00 0.000000e+00))
0.0001275     	((-3.638058e-01 7.686792e+00 1.014719e+00) (-3.840396e-03 2.567639e-01 -1.915379e-03) (0.000000e+00 0.000000e+00 0.000000e+00)) ((3.765884e+00 -1.006039e+01 8.039841e+01) (-2.446868e-01 1.390377e-02 2.603633e+00) (0.000000e+00 0.000000e+00 0.000000e+00))
0.00013       	((-3.632732e-01 7.683637e+00 1.016748e+00) (-3.981862e-03 2.566723e-01 -1.910211e-03) (0.000000e+00 0.000000e+00 0.000000e+00)) ((3.783317e+00 -1.008300e+01 8.035999e+01) (-2.447005e-01 1.370336e-02 2.604157e+00) (0.000000e+00 0.000000e+00 0.000000e+00))
0.0001325     	((-3.597720e-01 7.677172e+00 1.018185e+00) (-4.096956e-03 2.565523e-01 -1.894586e-03) (0.000000e+00 0.000000e+00 0.000000e+00)) ((3.797527e+00 -1.009732e+01 8.025833e+01) (-2.445796e-01 1.341640e-02 2.604133e+00) (0.000000e+00 0.000000e+00 0.000000e+00))
0.000135      	((-3.528838e-01 7.667775e+00 1.019608e+00) (-4.199365e-03 2.564117e-01 -1.860134e-03) (0.000000e+00 0.000000e+00 0.000000e+00)) ((3.814661e+00 -1.010874e+01 8.009344e+01) (-2.442381e-01 1.295143e-02 2.603769e+00) (0.000000e+00 0.000000e+00 0.000000e+00))
0.0001375     	((-3.446315e-01 7.655012e+00 1.022103e+00) (-4.265473e-03 2.562329e-01 -1.820258e-03) (0.000000e+00 0.000000e+00 0.000000e+00)) ((3.846034e+00 -1.012927e+01 7.988126e+01) (-2.438053e-01 1.246116e-02 2.602658e+00) (0.000000e+00 0.000000e+00 0.000000e+00))
0.00014       	((-3.347589e-01 7.640058e+00 1.025643e+00) (-4.311241e-03 2.560296e-01 -1.775240e-03) (0.000000e+00 0.000000e+00 0.000000e+00)) ((3.890765e+00 -1.015860e+01 7.963137e+01) (-2.432892e-01 1.193977e-02 2.601091e+00) (0.000000e+00 0.000000e+00 0.000000e+00))
0.0001425     	((-3.248553e-01 7.623358e+00 1.030384e+00) (-4.318355e-03 2.557956e-01 -1.739088e-03) (0.000000e+00 0.000000e+00 0.000000e+00)) ((3.949810e+00 -1.019924e+01 7.936382e+01) (-2.428316e-01 1.154019e-02 2.598827e+00) (0.000000e+00 0.000000e+00 0.000000e+00))
0.000145      	((-3.136007e-01 7.606572e+00 1.035365e+00) (-4.316833e-03 2.555407e-01 -1.701828e-03) (0.000000e+00 0.000000e+00 0.000000e+00)) ((4.012149e+00 -1.024077e+01 7.908217e+01) (-2.423359e-01 1.114216e-02 2.596258e+00) (0.000000e+00 0.000000e+00 0.000000e+00))
0.0001475     	((-3.023300e-01 7.590312e+00 1.040333e+00) (-4.284584e-03 2.552805e-01 -1.676359e-03) (0.000000e+00 0.000000e+00 0.000000e+00)) ((4.074292e+00 -1.028139e+01 7.880546e+01) (-2.419505e-01 1.088986e-02 2.593330e+00) (0.000000e+00 0.000000e+00 0.000000e+00))
0.00015       	((-2.900330e-01 7.575906e+00 1.044958e+00) (-4.254005e-03 2.550124e-01 -1.653977e-03) (0.000000e+00 0.000000e+00 0.000000e+00)) ((4.131946e+00 -1.031745e+01 7.853711e+01) (-2.415799e-01 1.067258e-02 2.590335e+00) (0.000000e+00 0.000000e+00 0.000000e+00))
0.0001525     	((-2.783109e-01 7.563057e+00 1.049723e+00) (-4.207414e-03 2.547370e-01 -1.643459e-03) (0.000000e+00 0.000000e+00 0.000000e+00)) ((4.189970e+00 -1.035490e+01 7.828983e+01) (-2.413185e-01 1.058904e-02 2.587108e+00) (0.000000e+00 0.000000e+00 0.000000e+00))
0.000155      	((-2.663368e-01 7.552376e+00 1.054567e+00) (-4.170750e-03 2.544707e-01 -1.639426e-03) (0.000000e+00 0.000000e+00 0.000000e+00)) ((4.247453e+00 -1.039293e+01 7.806178e+01) (-2.411222e-01 1.056648e-02 2.584070e+00) (0.000000e+00 0.000000e+00 0.000000e+00))
0.0001575     	((-2.554283e-01 7.543483e+00 1.059656e+00) (-4.125790e-03 2.542100e-01 -1.650606e-03) (0.000000e+00 0.000000e+00 0.000000e+00)) ((4.305983e+00 -1.043413e+01 7.786209e+01) (-2.410838e-01 1.070341e-02 2.581007e+00) (0.000000e+00 0.000000e+00 0.000000e+00))
0.00016       	((-2.446372e-01 7.536596e+00 1.064823e+00) (-4.095659e-03 2.539602e-01 -1.672929e-03) (0.000000e+00 0.000000e+00 0.000000e+00)) ((4.363788e+00 -1.047643e+01 7.768377e+01) (-2.411629e-01 1.094182e-02 2.578200e+00) (0.000000e+00 0.000000e+00 0.000000e+00))
0.0001625     	((-2.352093e-01 7.530712e+00 1.070459e+00) (-4.056391e-03 2.537224e-01 -1.715845e-03) (0.000000e+00 0.000000e+00 0.000000e+00)) ((4.425250e+00 -1.052450e+01 7.752914e+01) (-2.414648e-01 1.139320e-02 2.575424e+00) (0.000000e+00 0.000000e+00 0.000000e+00))
0.000165      	((-2.262196e-01 7.526069e+00 1.076183e+00) (-4.029044e-03 2.535043e-01 -1.765990e-03) (0.000000e+00 0.000000e+00 0.000000e+00)) ((4.486441e+00 -1.057408e+01 7.739166e+01) (-2.418552e-01 1.190868e-02 2.572963e+00) (0.000000e+00 0.000000e+00 0.000000e+00))
0.0001675     	((-2.187866e-01 7.521971e+00 1.082139e+00) (-3.998991e-03 2.532957e-01 -1.825499e-03) (0.000000e+00 0.000000e+00 0.000000e+00)) ((4.548989e+00 -1.062715e+01 7.727535e+01) (-2.423538e-01 1.251932e-02 2.570575e+00) (0.000000e+00 0.000000e+00 0.000000e+00))
0.00017       	((-2.116499e-01 7.518958e+00 1.087718e+00) (-3.978504e-03 2.531070e-01 -1.884087e-03) (0.000000e+00 0.000000e+00 0.000000e+00)) ((4.606491e+00 -1.067684e+01 7.717328e+01) (-2.428599e-01 1.311555e-02 2.568480e+00) (0.000000e+00 0.000000e+00 0.000000e+00))
0.0001725     	((-2.059576e-01 7.516652e+00 1.092923e+00) (-3.950505e-03 2.529373e-01 -1.949256e-03) (0.000000e+00 0.000000e+00 0.000000e+00)) ((4.658949e+00 -1.072370e+01 7.709285e+01) (-2.434527e-01 1.378281e-02 2.566506e+00) (0.000000e+00 0.000000e+00 0.000000e+00))
0.000175      	((-2.003243e-01 7.515602e+00 1.097059e+00) (-3.939133e-03 2.527878e-01 -2.009556e-03) (0.000000e+00 0.000000e+00 0.000000e+00)) ((4.699149e+00 -1.075990e+01 7.702599e+01) (-2.440134e-01 1.439021e-02 2.564898e+00) (0.000000e+00 0.000000e+00 0.000000e+00))
0.0001775     	((-1.960141e-01 7.515419e+00 1.100089e+00) (-3.917548e-03 2.526689e-01 -2.074185e-03) (0.000000e+00 0.000000e+00 0.000000e+00)) ((4.726811e+00 -1.078560e+01 7.698105e+01) (-2.446446e-01 1.504978e-02 2.563500e+00) (0.000000e+00 0.000000e+00 0.000000e+00))
0.00018       	((-1.915031e-01 7.516444e+00 1.101691e+00) (-3.909613e-03 2.525681e-01 -2.129481e-03) (0.000000e+00 0.000000e+00 0.000000e+00)) ((4.738741e+00 -1.079671e+01 7.694651e+01) (-2.451942e-01 1.560904e-02 2.562417e+00) (0.000000e+00 0.000000e+00 0.000000e+00))
0.0001825     	((-1.880126e-01 7.518094e+00 1.102195e+00) (-3.892209e-03 2.524958e-01 -2.184560e-03) (0.000000e+00 0.000000e+00 0.000000e+00)) ((4.738633e+00 -1.079717e+01 7.692828e+01) (-2.457647e-01 1.617442e-02 2.561529e+00) (0.000000e+00 0.000000e+00 0.000000e+00))
0.000185      	((-1.840427e-01 7.520487e+00 1.101565e+00) (-3.887323e-03 2.524379e-01 -2.230434e-03) (0.000000e+00 0.000000e+00 0.000000e+00)) ((4.726401e+00 -1.078588e+01 7.691287e+01) (-2.462508e-01 1.664106e-02 2.560906e+00) (0.000000e+00 0.000000e+00 0.000000e+00))
0.0001875     	((-1.809798e-01 7.523032e+00 1.100429e+00) (-3.867406e-03 2.524014e-01 -2.272288e-03) (0.000000e+00 0.000000e+00 0.000000e+00)) ((4.708744e+00 -1.077006e+01 7.690781e+01) (-2.467129e-01 1.708005e-02 2.560351e+00) (0.000000e+00 0.000000e+00 0.000000e+00))
0.00019       	((-1.774772e-01 7.526084e+00 1.098734e+00) (-3.857111e-03 2.523649e-01 -2.302852e-03) (0.000000e+00 0.000000e+00 0.000000e+00)) ((4.685118e+00 -1.074858e+01 7.690351e+01) (-2.470580e-01 1.739981e-02 2.559886e+00) (0.000000e+00 0.000000e+00 0.000000e+00))
0.0001925     	((-1.747971e-01 7.529049e+00 1.096969e+00) (-3.833376e-03 2.523364e-01 -2.333130e-03) (0.000000e+00 0.000000e+00 0.000000e+00)) ((4.660739e+00 -1.072714e+01 7.690632e+01) (-2.474072e-01 1.772632e-02 2.559369e+00) (0.000000e+00 0.000000e+00 0.000000e+00))
0.000195      	((-1.715637e-01 7.532068e+00 1.095115e+00) (-3.814007e-03 2.522973e-01 -2.353059e-03) (0.000000e+00 0.000000e+00 0.000000e+00)) ((4.635606e+00 -1.070491e+01 7.690419e+01) (-2.476415e-01 1.794610e-02 2.558784e+00) (0.000000e+00 0.000000e+00 0.000000e+00))
0.0001975     	((-1.691516e-01 7.534445e+00 1.093713e+00) (-3.784300e-03 2.522559e-01 -2.373063e-03) (0.000000e+00 0.000000e+00 0.000000e+00)) ((4.615567e+00 -1.068814e+01 7.690367e+01) (-2.478762e-01 1.817214e-02 2.558072e+00) (0.000000e+00 0.000000e+00 0.000000e+00))
0.0002        	((-1.664144e-01 7.536418e+00 1.092761e+00) (-3.761963e-03 2.521978e-01 -2.382563e-03) (0.000000e+00 0.000000e+00 0.000000e+00)) ((4.600677e+00 -1.067622e+01 7.689608e+01) (-2.479903e-01 1.828653e-02 2.557260e+00) (0.000000e+00 0.000000e+00 0.000000e+00))
0.0002025     	((-1.648438e-01 7.537512e+00 1.092763e+00) (-3.728233e-03 2.521336e-01 -2.390060e-03) (0.000000e+00 0.000000e+00 0.000000e+00)) ((4.596229e+00 -1.067501e+01 7.689133e+01) (-2.480788e-01 1.838720e-02 2.556277e+00) (0.000000e+00 0.000000e+00 0.000000e+00))
0.000205      	((-1.631769e-01 7.538130e+00 1.093452e+00) (-3.706181e-03 2.520484e-01 -2.386681e-03) (0.000000e+00 0.000000e+00 0.000000e+00)) ((4.599470e+00 -1.068107e+01 7.688122e+01) (-2.480399e-01 1.836969e-02 2.555194e+00) (0.000000e+00 0.000000e+00 0.000000e+00))
0.0002075     	((-1.629685e-01 7.538060e+00 1.094994e+00) (-3.677265e-03 2.519694e-01 -2.387044e-03) (0.000000e+00 0.000000e+00 0.000000e+00)) ((4.612077e+00 -1.069686e+01 7.687885e+01) (-2.480437e-01 1.839215e-02 2.554109e+00) (0.000000e+00 0.000000e+00 0.000000e+00))
0.00021       	((-1.628934e-01 7.537872e+00 1.096858e+00) (-3.663078e-03 2.518754e-01 -2.381833e-03) (0.000000e+00 0.000000e+00 0.000000e+00)) ((4.628402e+00 -1.071624e+01 7.687704e+01) (-2.479789e-01 1.834676e-02 2.553018e+00) (0.000000e+00 0.000000e+00 0.000000e+00))
0.0002125     	((-1.643099e-01 7.537478e+00 1.099183e+00) (-3.643966e-03 2.517942e-01 -2.378258e-03) (0.000000e+00 0.000000e+00 0.000000e+00)) ((4.649757e+00 -1.074120e+01 7.688806e+01) (-2.479392e-01 1.831924e-02 2.552011e+00) (0.000000e+00 0.000000e+00 0.000000e+00))
0.000215      	((-1.657680e-01 7.537291e+00 1.101554e+00) (-3.640895e-03 2.517080e-01 -2.370093e-03) (0.000000e+00 0.000000e+00 0.000000e+00)) ((4.671820e+00 -1.076666e+01 7.690187e+01) (-2.478481e-01 1.823407e-02 2.551112e+00) (0.000000e+00 0.000000e+00 0.000000e+00))
0.0002175     	((-1.685001e-01 7.536989e+00 1.104145e+00) (-3.633802e-03 2.516399e-01 -2.365194e-03) (0.000000e+00 0.000000e+00 0.000000e+00)) ((4.696355e+00 -1.079486e+01 7.692709e+01) (-2.478027e-01 1.818392e-02 2.550361e+00) (0.000000e+00 0.000000e+00 0.000000e+00))
0.00022       	((-1.709938e-01 7.536886e+00 1.106544e+00) (-3.644072e-03 2.515705e-01 -2.355142e-03) (0.000000e+00 0.000000e+00 0.000000e+00)) ((4.719106e+00 -1.082082e+01 7.695205e+01) (-2.477030e-01 1.807002e-02 2.549767e+00) (0.000000e+00 0.000000e+00 0.000000e+00))
0.0002225     	((-1.742769e-01 7.536706e+00 1.108974e+00) (-3.649088e-03 2.515218e-01 -2.347609e-03) (0.000000e+00 0.000000e+00 0.000000e+00)) ((4.742248e+00 -1.084725e+01 7.698382e+01) (-2.476433e-01 1.798577e-02 2.549335e+00) (0.000000e+00 0.000000e+00 0.000000e+00))
0.000225      	((-1.766897e-01 7.536827e+00 1.111168e+00) (-3.665646e-03 2.514692e-01 -2.334259e-03) (0.000000e+00 0.000000e+00 0.000000e+00)) ((4.762924e+00 -1.087057e+01 7.700980e+01) (-2.475199e-01 1.783651e-02 2.548973e+00) (0.000000e+00 0.000000e+00 0.000000e+00))
0.0002275     	((-1.792521e-01 7.537016e+00 1.113464e+00) (-3.673868e-03 2.514340e-01 -2.322842e-03) (0.000000e+00 0.000000e+00 0.000000e+00)) ((4.784496e+00 -1.089474e+01 7.703747e+01) (-2.474287e-01 1.771287e-02 2.548707e+00) (0.000000e+00 0.000000e+00 0.000000e+00))
0.00023       	((-1.804597e-01 7.537671e+00 1.115558e+00) (-3.691917e-03 2.513941e-01 -2.309738e-03) (0.000000e+00 0.000000e+00 0.000000e+00)) ((4.803710e+00 -1.091597e+01 7.705608e+01) (-2.473172e-01 1.756634e-02 2.548487e+00) (0.000000e+00 0.000000e+00 0.000000e+00))
0.0002325     	((-1.814711e-01 7.538490e+00 1.117827e+00) (-3.698045e-03 2.513685e-01 -2.300820e-03) (0.000000e+00 0.000000e+00 0.000000e+00)) ((4.824407e+00 -1.093873e+01 7.707387e+01) (-2.472586e-01 1.747030e-02 2.548294e+00) (0.000000e+00 0.000000e+00 0.000000e+00))
0.000235      	((-1.808807e-01 7.539723e+00 1.120158e+00) (-3.711420e-03 2.513282e-01 -2.285833e-03) (0.000000e+00 0.000000e+00 0.000000e+00)) ((4.845434e+00 -1.096119e+01 7.707966e+01) (-2.471272e-01 1.730921e-02 2.548019e+00) (0.000000e+00 0.000000e+00 0.000000e+00))
0.0002375     	((-1.801266e-01 7.541057e+00 1.122913e+00) (-3.710759e-03 2.513020e-01 -2.273751e-03) (0.000000e+00 0.000000e+00 0.000000e+00)) ((4.870528e+00 -1.098783e+01 7.708442e+01) (-2.470348e-01 1.718746e-02 2.547749e+00) (0.000000e+00 0.000000e+00 0.000000e+00))
0.00024       	((-1.781617e-01 7.542686e+00 1.125801e+00) (-3.719276e-03 2.512613e-01 -2.258038e-03) (0.000000e+00 0.000000e+00 0.000000e+00)) ((4.896750e+00 -1.101523e+01 7.708014e+01) (-2.468946e-01 1.702334e-02 2.547419e+00) (0.000000e+00 0.000000e+00 0.000000e+00))
0.0002425     	((-1.765887e-01 7.544237e+00 1.129077e+00) (-3.715046e-03 2.512317e-01 -2.243948e-03) (0.000000e+00 0.000000e+00 0.000000e+00)) ((4.926841e+00 -1.104688e+01 7.707886e+01) (-2.467778e-01 1.688397e-02 2.547076e+00) (0.000000e+00 0.000000e+00 0.000000e+00))
0.000245      	((-1.742686e-01 7.545831e+00 1.132499e+00) (-3.717650e-03 2.511845e-01 -2.223091e-03) (0.000000e+00 0.000000e+00 0.000000e+00)) ((4.958470e+00 -1.107969e+01 7.707087e+01) (-2.465773e-01 1.667312e-02 2.546621e+00) (0.000000e+00 0.000000e+00 0.000000e+00))
0.0002475     	((-1.727475e-01 7.547146e+00 1.136257e+00) (-3.709075e-03 2.511482e-01 -2.203906e-03) (0.000000e+00 0.000000e+00 0.000000e+00)) ((4.993689e+00 -1.111645e+01 7.706810e+01) (-2.463993e-01 1.648654e-02 2.546168e+00) (0.000000e+00 0.000000e+00 0.000000e+00))
0.00025       	((-1.709594e-01 7.548427e+00 1.139833e+00) (-3.714634e-03 2.510971e-01 -2.181723e-03) (0.000000e+00 0.000000e+00 0.000000e+00)) ((5.027271e+00 -1.115133e+01 7.706276e+01) (-2.461780e-01 1.625979e-02 2.545704e+00) (0.000000e+00 0.000000e+00 0.000000e+00))
0.0002525     	((-1.702743e-01 7.549372e+00 1.143343e+00) (-3.709006e-03 2.510586e-01 -2.161564e-03) (0.000000e+00 0.000000e+00 0.000000e+00)) ((5.060503e+00 -1.118620e+01 7.706519e+01) (-2.459831e-01 1.606126e-02 2.545262e+00) (0.000000e+00 0.000000e+00 0.000000e+00))
0.000255      	((-1.694681e-01 7.550190e+00 1.146364e+00) (-3.716145e-03 2.510071e-01 -2.139358e-03) (0.000000e+00 0.000000e+00 0.000000e+00)) ((5.089136e+00 -1.121611e+01 7.706556e+01) (-2.457550e-01 1.583362e-02 2.544813e+00) (0.000000e+00 0.000000e+00 0.000000e+00))
0.0002575     	((-1.697366e-01 7.550673e+00 1.148861e+00) (-3.718089e-03 2.509719e-01 -2.126032e-03) (0.000000e+00 0.000000e+00 0.000000e+00)) ((5.112781e+00 -1.124132e+01 7.707335e+01) (-2.456275e-01 1.569732e-02 2.544483e+00) (0.000000e+00 0.000000e+00 0.000000e+00))
0.00026       	((-1.695806e-01 7.551103e+00 1.150519e+00) (-3.731083e-03 2.509249e-01 -2.111821e-03) (0.000000e+00 0.000000e+00 0.000000e+00)) ((5.128213e+00 -1.125778e+01 7.707663e+01) (-2.454799e-01 1.554506e-02 2.544142e+00) (0.000000e+00 0.000000e+00 0.000000e+00))
0.0002625     	((-1.700126e-01 7.551341e+00 1.151618e+00) (-3.734520e-03 2.508943e-01 -2.105630e-03) (0.000000e+00 0.000000e+00 0.000000e+00)) ((5.138190e+00 -1.126884e+01 7.708370e+01) (-2.454243e-01 1.547918e-02 2.543876e+00) (0.000000e+00 0.000000e+00 0.000000e+00))
0.000265      	((-1.695203e-01 7.551719e+00 1.151878e+00) (-3.752199e-03 2.508528e-01 -2.103315e-03) (0.000000e+00 0.000000e+00 0.000000e+00)) ((5.139746e+00 -1.127084e+01 7.708300e+01) (-2.454004e-01 1.544175e-02 2.543638e+00) (0.000000e+00 0.000000e+00 0.000000e+00))
0.0002675     	((-1.690352e-01 7.552038e+00 1.151775e+00) (-3.756316e-03 2.508278e-01 -2.107952e-03) (0.000000e+00 0.000000e+00 0.000000e+00)) ((5.137648e+00 -1.126901e+01 7.708139e+01) (-2.454582e-01 1.548333e-02 2.543435e+00) (0.000000e+00 0.000000e+00 0.000000e+00))
0.00027       	((-1.670606e-01 7.552541e+00 1.151309e+00) (-3.769673e-03 2.507889e-01 -2.112579e-03) (0.000000e+00 0.000000e+00 0.000000e+00)) ((5.131849e+00 -1.126258e+01 7.706662e+01) (-2.455062e-01 1.551867e-02 2.543179e+00) (0.000000e+00 0.000000e+00 0.000000e+00))
0.0002725     	((-1.647971e-01 7.553034e+00 1.150868e+00) (-3.771741e-03 2.507666e-01 -2.125729e-03) (0.000000e+00 0.000000e+00 0.000000e+00)) ((5.126214e+00 -1.125616e+01 7.704836e+01) (-2.456539e-01 1.564607e-02 2.542982e+00) (0.000000e+00 0.000000e+00 0.000000e+00))
0.000275      	((-1.608757e-01 7.553739e+00 1.150408e+00) (-3.780290e-03 2.507295e-01 -2.135699e-03) (0.000000e+00 0.000000e+00 0.000000e+00)) ((5.120253e+00 -1.124856e+01 7.701552e+01) (-2.457588e-01 1.573783e-02 2.542695e+00) (0.000000e+00 0.000000e+00 0.000000e+00))