# Forces      
# CofR        : (0.000000e+00 0.000000e+00 0.000000e+00)
# Time        forces(pressure viscous porous)	moments(pressure viscous porous)
2.5e-06       	((-2.009795e-01 1.593414e+01 2.497367e-01) (-1.398446e-03 4.542786e-01 -1.249017e-03) (0.000000e+00 0.000000e+00 0.000000e+00)) ((-1.185304e+01 -2.267756e+00 1.615395e+02) (-4.346863e-01 9.277491e-03 4.556120e+00) (0.000000e+00 0.000000e+00 0.000000e+00))
5e-06         	((-2.865552e+00 6.583828e+01 -1.378116e-01) (1.857412e-03 6.192586e-01 -4.807423e-03) (0.000000e+00 0.000000e+00 0.000000e+00)) ((-6.052032e+01 -3.523279e-01 6.875292e+02) (-5.680262e-01 4.815563e-02 6.171724e+00) (0.000000e+00 0.000000e+00 0.000000e+00))
7.5e-06       	((-1.312203e+01 1.309418e+02 4.175194e+00) (6.241792e-03 6.157963e-01 -4.933798e-03) (0.000000e+00 0.000000e+00 0.000000e+00)) ((-8.369096e+01 -5.342133e+01 1.442754e+03) (-5.492296e-01 5.315831e-02 6.092309e+00) (0.000000e+00 0.000000e+00 0.000000e+00))
1e-05         	((-6.277372e+00 8.948515e+01 -1.034867e+00) (3.431381e-02 5.218080e-01 -1.760249e-02) (0.000000e+00 0.000000e+00 0.000000e+00)) ((-9.080301e+01 6.036033e+00 9.586090e+02) (-5.814819e-01 2.091110e-01 4.867616e+00) (0.000000e+00 0.000000e+00 0.000000e+00))
1.25e-05      	((5.838448e+00 2.428617e+01 -4.039939e+00) (3.180250e-02 4.887105e-01 -7.644812e-03) (0.000000e+00 0.000000e+00 0.000000e+00)) ((-5.438472e+01 4.845578e+01 1.839150e+02) (-4.570642e-01 1.057302e-01 4.562325e+00) (0.000000e+00 0.000000e+00 0.000000e+00))
1.5e-05       	((6.091050e+00 5.165662e+00 -2.219301e+00) (2.029378e-02 4.422152e-01 -3.346311e-03) (0.000000e+00 0.000000e+00 0.000000e+00)) ((-1.963554e+01 3.005255e+01 -9.860115e+00) (-3.789349e-01 5.030906e-02 4.215778e+00) (0.000000e+00 0.000000e+00 0.000000e+00))
1.75e-05      	((9.219010e-03 1.394355e+01 8.944643e-01) (1.065700e-02 4.290375e-01 2.807397e-03) (0.000000e+00 0.000000e+00 0.000000e+00)) ((-6.608623e-01 -7.890110e+00 1.394652e+02) (-3.162247e-01 -2.053559e-02 4.181503e+00) (0.000000e+00 0.000000e+00 0.000000e+00))
2e-05         	((-3.503940e+00 2.305410e+01 2.415324e+00) (2.226134e-03 4.235731e-01 2.226199e-03) (0.000000e+00 0.000000e+00 0.000000e+00)) ((3.410822e+00 -2.698356e+01 2.661510e+02) (-3.239653e-01 -2.273162e-02 4.212418e+00) (0.000000e+00 0.000000e+00 0.000000e+00))
2.25e-05      	((-3.461369e+00 2.210649e+01 1.468491e+00) (-6.635865e-04 4.156630e-01 -2.674498e-03) (0.000000e+00 0.000000e+00 0.000000e+00)) ((-5.643616e+00 -1.751247e+01 2.562965e+02) (-3.665729e-01 2.404211e-02 4.162635e+00) (0.000000e+00 0.000000e+00 0.000000e+00))
2.5e-05       	((-1.815477e+00 1.443181e+01 -6.357477e-01) (-3.391222e-04 4.057159e-01 -6.741423e-03) (0.000000e+00 0.000000e+00 0.000000e+00)) ((-1.875394e+01 5.272823e+00 1.629512e+02) (-3.963430e-01 6.591041e-02 4.059641e+00) (0.000000e+00 0.000000e+00 0.000000e+00))
2.75e-05      	((-6.229614e-01 8.608152e+00 -1.826431e+00) (9.825497e-04 3.904281e-01 -8.312330e-03) (0.000000e+00 0.000000e+00 0.000000e+00)) ((-2.445604e+01 1.843438e+01 9.268087e+01) (-3.951964e-01 8.342061e-02 3.893195e+00) (0.000000e+00 0.000000e+00 0.000000e+00))
3e-05         	((-4.999105e-01 8.667289e+00 -1.286344e+00) (1.844305e-03 3.795547e-01 -6.486035e-03) (0.000000e+00 0.000000e+00 0.000000e+00)) ((-1.897173e+01 1.311160e+01 9.202191e+01) (-3.651485e-01 6.609949e-02 3.775753e+00) (0.000000e+00 0.000000e+00 0.000000e+00))
3.25e-05      	((-9.300102e-01 1.221918e+01 1.184443e-01) (1.440322e-03 3.768189e-01 -3.393113e-03) (0.000000e+00 0.000000e+00 0.000000e+00)) ((-8.573874e+00 -1.464642e+00 1.318660e+02) (-3.317256e-01 3.455885e-02 3.752381e+00) (0.000000e+00 0.000000e+00 0.000000e+00))
3.5e-05       	((-1.230352e+00 1.479582e+01 1.037905e+00) (7.347293e-04 3.781192e-01 -3.999370e-04) (0.000000e+00 0.000000e+00 0.000000e+00)) ((-2.144541e+00 -1.102864e+01 1.606506e+02) (-3.042240e-01 3.756110e-03 3.772597e+00) (0.000000e+00 0.000000e+00 0.000000e+00))
3.75e-05      	((-1.155035e+00 1.444711e+01 9.413266e-01) (-1.403952e-04 3.781583e-01 4.995910e-04) (0.000000e+00 0.000000e+00 0.000000e+00)) ((-2.907232e+00 -9.999658e+00 1.564017e+02) (-2.970358e-01 -6.313324e-03 3.781900e+00) (0.000000e+00 0.000000e+00 0.000000e+00))
4e-05         	((-8.914123e-01 1.241463e+01 2.907776e-01) (-5.836009e-04 3.737283e-01 1.577703e-04) (0.000000e+00 0.000000e+00 0.000000e+00)) ((-7.443746e+00 -3.209735e+00 1.334234e+02) (-2.978428e-01 -3.326124e-03 3.742163e+00) (0.000000e+00 0.000000e+00 0.000000e+00))
4.25e-05      	((-6.930832e-01 1.085317e+01 -1.678670e-01) (-6.085321e-04 3.666516e-01 -7.147869e-04) (0.000000e+00 0.000000e+00 0.000000e+00)) ((-1.047995e+01 1.594261e+00 1.158176e+02) (-3.010931e-01 5.487577e-03 3.671717e+00) (0.000000e+00 0.000000e+00 0.000000e+00))
4.5e-05       	((-6.512274e-01 1.075061e+01 -1.150313e-01) (-6.213617e-04 3.602996e-01 -1.206190e-03) (0.000000e+00 0.000000e+00 0.000000e+00)) ((-9.851033e+00 1.106509e+00 1.143754e+02) (-3.010090e-01 1.051292e-02 3.608458e+00) (0.000000e+00 0.000000e+00 0.000000e+00))
4.75e-05      	((-6.967084e-01 1.159253e+01 2.431098e-01) (-7.931177e-04 3.569763e-01 -9.854643e-04) (0.000000e+00 0.000000e+00 0.000000e+00)) ((-7.134460e+00 -2.542000e+00 1.232545e+02) (-2.965712e-01 8.239493e-03 3.577095e+00) (0.000000e+00 0.000000e+00 0.000000e+00))
5e-05         	((-7.239419e-01 1.233757e+01 5.431983e-01) (-1.113995e-03 3.564343e-01 -3.760501e-04) (0.000000e+00 0.000000e+00 0.000000e+00)) ((-4.925865e+00 -5.599708e+00 1.309784e+02) (-2.907220e-01 1.887082e-03 3.575051e+00) (0.000000e+00 0.000000e+00 0.000000e+00))
5.25e-05      	((-6.787331e-01 1.241457e+01 6.079049e-01) (-1.461817e-03 3.566689e-01 1.763509e-04) (0.000000e+00 0.000000e+00 0.000000e+00)) ((-4.412328e+00 -6.227692e+00 1.312929e+02) (-2.860838e-01 -3.941432e-03 3.581032e+00) (0.000000e+00 0.000000e+00 0.000000e+00))
5.5e-05       	((-5.830951e-01 1.196337e+01 5.011625e-01) (-1.627479e-03 3.562779e-01 4.011067e-04) (0.000000e+00 0.000000e+00 0.000000e+00)) ((-5.075122e+00 -5.079945e+00 1.258187e+02) (-2.839670e-01 -6.328006e-03 3.578944e+00) (0.000000e+00 0.000000e+00 0.000000e+00))
5.75e-05      	((-4.818957e-01 1.144659e+01 3.796276e-01) (-1.661217e-03 3.548100e-01 3.878196e-04) (0.000000e+00 0.000000e+00 0.000000e+00)) ((-5.800746e+00 -3.770017e+00 1.196355e+02) (-2.831406e-01 -6.170597e-03 3.564730e+00) (0.000000e+00 0.000000e+00 0.000000e+00))
6e-05         	((-4.143199e-01 1.120139e+01 3.431232e-01) (-1.544384e-03 3.530390e-01 2.203935e-04) (0.000000e+00 0.000000e+00 0.000000e+00)) ((-5.930127e+00 -3.338430e+00 1.165074e+02) (-2.835012e-01 -4.316974e-03 3.545995e+00) (0.000000e+00 0.000000e+00 0.000000e+00))
6.25e-05      	((-3.817150e-01 1.128390e+01 3.846853e-01) (-1.539117e-03 3.516066e-01 1.922167e-04) (0.000000e+00 0.000000e+00 0.000000e+00)) ((-5.600322e+00 -3.723386e+00 1.170093e+02) (-2.827549e-01 -3.936501e-03 3.531743e+00) (0.000000e+00 0.000000e+00 0.000000e+00))
6.5e-05       	((-3.713444e-01 1.148267e+01 4.511905e-01) (-1.609458e-03 3.507475e-01 2.412300e-04) (0.000000e+00 0.000000e+00 0.000000e+00)) ((-5.139347e+00 -4.380045e+00 1.188956e+02) (-2.816984e-01 -4.426481e-03 3.523994e+00) (0.000000e+00 0.000000e+00 0.000000e+00))
6.75e-05      	((-3.557497e-01 1.160778e+01 4.997252e-01) (-1.823192e-03 3.501300e-01 3.948250e-04) (0.000000e+00 0.000000e+00 0.000000e+00)) ((-4.791097e+00 -4.853116e+00 1.199921e+02) (-2.798417e-01 -6.103012e-03 3.520071e+00) (0.000000e+00 0.000000e+00 0.000000e+00))
7e-05         	((-3.337898e-01 1.161883e+01 5.254761e-01) (-1.976789e-03 3.495641e-01 5.036234e-04) (0.000000e+00 0.000000e+00 0.000000e+00)) ((-4.561650e+00 -5.090192e+00 1.198816e+02) (-2.783996e-01 -7.294502e-03 3.516062e+00) (0.000000e+00 0.000000e+00 0.000000e+00))
7.25e-05      	((-3.038197e-01 1.155473e+01 5.322060e-01) (-2.169868e-03 3.488231e-01 6.586827e-04) (0.000000e+00 0.000000e+00 0.000000e+00)) ((-4.450527e+00 -5.128946e+00 1.189384e+02) (-2.763517e-01 -8.969373e-03 3.510655e+00) (0.000000e+00 0.000000e+00 0.000000e+00))
7.5e-05       	((-2.766284e-01 1.147733e+01 5.308209e-01) (-2.265783e-03 3.480314e-01 7.074383e-04) (0.000000e+00 0.000000e+00 0.000000e+00)) ((-4.406272e+00 -5.087748e+00 1.178877e+02) (-2.752476e-01 -9.508216e-03 3.503772e+00) (0.000000e+00 0.000000e+00 0.000000e+00))
7.75e-05      	((-2.491735e-01 1.142340e+01 5.325872e-01) (-2.343453e-03 3.470611e-01 7.884144e-04) (0.000000e+00 0.000000e+00 0.000000e+00)) ((-4.351459e+00 -5.079460e+00 1.170692e+02) (-2.737272e-01 -1.034223e-02 3.494888e+00) (0.000000e+00 0.000000e+00 0.000000e+00))
8e-05         	((-2.273106e-01 1.140328e+01 5.415848e-01) (-2.322106e-03 3.462426e-01 7.737271e-04) (0.000000e+00 0.000000e+00 0.000000e+00)) ((-4.254269e+00 -5.148937e+00 1.166432e+02) (-2.732632e-01 -1.015405e-02 3.486544e+00) (0.000000e+00 0.000000e+00 0.000000e+00))
8.25e-05      	((-2.028727e-01 1.140691e+01 5.577299e-01) (-2.323669e-03 3.453931e-01 7.942602e-04) (0.000000e+00 0.000000e+00 0.000000e+00)) ((-4.106901e+00 -5.289712e+00 1.164294e+02) (-2.724821e-01 -1.032849e-02 3.478090e+00) (0.000000e+00 0.000000e+00 0.000000e+00))
8.5e-05       	((-1.798205e-01 1.142291e+01 5.767515e-01) (-2.253507e-03 3.447396e-01 7.442989e-04) (0.000000e+00 0.000000e+00 0.000000e+00)) ((-3.940942e+00 -5.460788e+00 1.163521e+02) (-2.725340e-01 -9.756314e-03 3.470892e+00) (0.000000e+00 0.000000e+00 0.000000e+00))
8.75e-05      	((-1.528333e-01 1.144070e+01 5.960020e-01) (-2.199339e-03 3.440615e-01 7.614129e-04) (0.000000e+00 0.000000e+00 0.000000e+00)) ((-3.773974e+00 -5.632334e+00 1.162543e+02) (-2.719388e-01 -9.859847e-03 3.463573e+00) (0.000000e+00 0.000000e+00 0.000000e+00))
9e-05         	((-1.283598e-01 1.145719e+01 6.138243e-01) (-2.076908e-03 3.435307e-01 7.197490e-04) (0.000000e+00 0.000000e+00 0.000000e+00)) ((-3.619435e+00 -5.792025e+00 1.161679e+02) (-2.720015e-01 -9.331868e-03 3.457057e+00) (0.000000e+00 0.000000e+00 0.000000e+00))
9.25e-05      	((-1.030183e-01 1.146953e+01 6.304729e-01) (-2.007862e-03 3.428902e-01 7.392427e-04) (0.000000e+00 0.000000e+00 0.000000e+00)) ((-3.473029e+00 -5.941019e+00 1.160328e+02) (-2.714071e-01 -9.448820e-03 3.449949e+00) (0.000000e+00 0.000000e+00 0.000000e+00))
9.5e-05       	((-8.444250e-02 1.147923e+01 6.450808e-01) (-1.866344e-03 3.423717e-01 6.713380e-04) (0.000000e+00 0.000000e+00 0.000000e+00)) ((-3.343960e+00 -6.075894e+00 1.159380e+02) (-2.717303e-01 -8.642852e-03 3.443357e+00) (0.000000e+00 0.000000e+00 0.000000e+00))
9.75e-05      	((-6.692236e-02 1.148553e+01 6.585426e-01) (-1.786032e-03 3.417330e-01 6.529745e-04) (0.000000e+00 0.000000e+00 0.000000e+00)) ((-3.223042e+00 -6.202227e+00 1.158209e+02) (-2.714996e-01 -8.364585e-03 3.436148e+00) (0.000000e+00 0.000000e+00 0.000000e+00))
0.0001        	((-5.574006e-02 1.149175e+01 6.710550e-01) (-1.642153e-03 3.412305e-01 5.731776e-04) (0.000000e+00 0.000000e+00 0.000000e+00)) ((-3.110544e+00 -6.324779e+00 1.157654e+02) (-2.719324e-01 -7.429727e-03 3.429688e+00) (0.000000e+00 0.000000e+00 0.000000e+00))
0.0001025     	((-4.439148e-02 1.149831e+01 6.839103e-01) (-1.569673e-03 3.406127e-01 5.726320e-04) (0.000000e+00 0.000000e+00 0.000000e+00)) ((-2.994774e+00 -6.451909e+00 1.157131e+02) (-2.714964e-01 -7.336167e-03 3.422758e+00) (0.000000e+00 0.000000e+00 0.000000e+00))
0.000105      	((-3.845808e-02 1.150815e+01 6.966967e-01) (-1.456277e-03 3.401097e-01 5.229718e-04) (0.000000e+00 0.000000e+00 0.000000e+00)) ((-2.882028e+00 -6.582566e+00 1.157475e+02) (-2.715592e-01 -6.735165e-03 3.416581e+00) (0.000000e+00 0.000000e+00 0.000000e+00))
0.0001075     	((-3.299202e-02 1.151996e+01 7.100164e-01) (-1.419462e-03 3.394818e-01 5.566708e-04) (0.000000e+00 0.000000e+00 0.000000e+00)) ((-2.765835e+00 -6.719408e+00 1.158085e+02) (-2.707007e-01 -7.018914e-03 3.409888e+00) (0.000000e+00 0.000000e+00 0.000000e+00))
0.00011       	((-3.409957e-02 1.153419e+01 7.233257e-01) (-1.316971e-03 3.390712e-01 5.435755e-04) (0.000000e+00 0.000000e+00 0.000000e+00)) ((-2.651338e+00 -6.860064e+00 1.159600e+02) (-2.704548e-01 -6.787897e-03 3.404748e+00) (0.000000e+00 0.000000e+00 0.000000e+00))
0.0001125     	((-3.675870e-02 1.154712e+01 7.363704e-01) (-1.280789e-03 3.385841e-01 5.981661e-04) (0.000000e+00 0.000000e+00 0.000000e+00)) ((-2.538171e+00 -6.999270e+00 1.161165e+02) (-2.695302e-01 -7.266157e-03 3.399486e+00) (0.000000e+00 0.000000e+00 0.000000e+00))
0.000115      	((-4.778190e-02 1.155894e+01 7.475627e-01) (-1.189352e-03 3.382268e-01 5.888159e-04) (0.000000e+00 0.000000e+00 0.000000e+00)) ((-2.441500e+00 -7.125425e+00 1.163457e+02) (-2.692951e-01 -7.068244e-03 3.394991e+00) (0.000000e+00 0.000000e+00 0.000000e+00))
0.0001175     	((-6.041061e-02 1.156763e+01 7.571003e-01) (-1.177272e-03 3.377517e-01 6.313290e-04) (0.000000e+00 0.000000e+00 0.000000e+00)) ((-2.358442e+00 -7.236324e+00 1.165617e+02) (-2.684909e-01 -7.441421e-03 3.390084e+00) (0.000000e+00 0.000000e+00 0.000000e+00))
0.00012       	((-7.939563e-02 1.157517e+01 7.638878e-01) (-1.120216e-03 3.374016e-01 5.951137e-04) (0.000000e+00 0.000000e+00 0.000000e+00)) ((-2.301305e+00 -7.323982e+00 1.168293e+02) (-2.685280e-01 -7.004302e-03 3.385999e+00) (0.000000e+00 0.000000e+00 0.000000e+00))
0.0001225     	((-9.787251e-02 1.158059e+01 7.681988e-01) (-1.140826e-03 3.369415e-01 6.144991e-04) (0.000000e+00 0.000000e+00 0.000000e+00)) ((-2.267441e+00 -7.386856e+00 1.170719e+02) (-2.679603e-01 -7.177087e-03 3.381562e+00) (0.000000e+00 0.000000e+00 0.000000e+00))
0.000125      	((-1.198578e-01 1.158553e+01 7.695127e-01) (-1.102538e-03 3.365998e-01 5.376471e-04) (0.000000e+00 0.000000e+00 0.000000e+00)) ((-2.263133e+00 -7.422051e+00 1.173439e+02) (-2.683959e-01 -6.348326e-03 3.377739e+00) (0.000000e+00 0.000000e+00 0.000000e+00))
0.0001275     	((-1.386204e-01 1.158760e+01 7.681212e-01) (-1.125206e-03 3.362296e-01 5.654364e-04) (0.000000e+00 0.000000e+00 0.000000e+00)) ((-2.283846e+00 -7.428319e+00 1.175560e+02) (-2.678581e-01 -6.603231e-03 3.374235e+00) (0.000000e+00 0.000000e+00 0.000000e+00))
0.00013       	((-1.614995e-01 1.158767e+01 7.628106e-01) (-1.096592e-03 3.360216e-01 5.422028e-04) (0.000000e+00 0.000000e+00 0.000000e+00)) ((-2.341502e+00 -7.398591e+00 1.177875e+02) (-2.679201e-01 -6.331511e-03 3.371869e+00) (0.000000e+00 0.000000e+00 0.000000e+00))
0.0001325     	((-1.820908e-01 1.158481e+01 7.549806e-01) (-1.152475e-03 3.356667e-01 5.787180e-04) (0.000000e+00 0.000000e+00 0.000000e+00)) ((-2.422138e+00 -7.343059e+00 1.179676e+02) (-2.672956e-01 -6.720980e-03 3.368853e+00) (0.000000e+00 0.000000e+00 0.000000e+00))
0.000135      	((-2.056792e-01 1.158129e+01 7.443763e-01) (-1.162502e-03 3.353963e-01 5.410753e-04) (0.000000e+00 0.000000e+00 0.000000e+00)) ((-2.529693e+00 -7.261869e+00 1.181695e+02) (-2.674188e-01 -6.349227e-03 3.366253e+00) (0.000000e+00 0.000000e+00 0.000000e+00))
0.0001375     	((-2.272267e-01 1.157515e+01 7.319200e-01) (-1.241616e-03 3.350475e-01 5.863039e-04) (0.000000e+00 0.000000e+00 0.000000e+00)) ((-2.653611e+00 -7.161218e+00 1.183257e+02) (-2.666786e-01 -6.851153e-03 3.363538e+00) (0.000000e+00 0.000000e+00 0.000000e+00))
0.00014       	((-2.507444e-01 1.156780e+01 7.169499e-01) (-1.285423e-03 3.348648e-01 5.746890e-04) (0.000000e+00 0.000000e+00 0.000000e+00)) ((-2.801106e+00 -7.036501e+00 1.184885e+02) (-2.666017e-01 -6.769654e-03 3.362149e+00) (0.000000e+00 0.000000e+00 0.000000e+00))
0.0001425     	((-2.700600e-01 1.155797e+01 7.000777e-01) (-1.401804e-03 3.345639e-01 6.132770e-04) (0.000000e+00 0.000000e+00 0.000000e+00)) ((-2.965535e+00 -6.889723e+00 1.185858e+02) (-2.659718e-01 -7.241572e-03 3.360282e+00) (0.000000e+00 0.000000e+00 0.000000e+00))
0.000145      	((-2.914078e-01 1.154818e+01 6.813642e-01) (-1.452198e-03 3.343900e-01 5.679579e-04) (0.000000e+00 0.000000e+00 0.000000e+00)) ((-3.147890e+00 -6.725123e+00 1.187028e+02) (-2.662329e-01 -6.834555e-03 3.359053e+00) (0.000000e+00 0.000000e+00 0.000000e+00))
0.0001475     	((-3.083649e-01 1.153768e+01 6.630677e-01) (-1.564679e-03 3.340721e-01 5.616413e-04) (0.000000e+00 0.000000e+00 0.000000e+00)) ((-3.325648e+00 -6.561396e+00 1.187702e+02) (-2.660349e-01 -6.856741e-03 3.356980e+00) (0.000000e+00 0.000000e+00 0.000000e+00))
0.00015       	((-3.275110e-01 1.152880e+01 6.456993e-01) (-1.605435e-03 3.338648e-01 4.863764e-04) (0.000000e+00 0.000000e+00 0.000000e+00)) ((-3.495030e+00 -6.407770e+00 1.188746e+02) (-2.665840e-01 -6.142990e-03 3.355318e+00) (0.000000e+00 0.000000e+00 0.000000e+00))
0.0001525     	((-3.433407e-01 1.152016e+01 6.307006e-01) (-1.689249e-03 3.335502e-01 4.490154e-04) (0.000000e+00 0.000000e+00 0.000000e+00)) ((-3.641018e+00 -6.275476e+00 1.189489e+02) (-2.667170e-01 -5.833604e-03 3.352992e+00) (0.000000e+00 0.000000e+00 0.000000e+00))
0.000155      	((-3.606897e-01 1.151312e+01 6.184507e-01) (-1.702954e-03 3.333485e-01 3.380989e-04) (0.000000e+00 0.000000e+00 0.000000e+00)) ((-3.760421e+00 -6.171428e+00 1.190534e+02) (-2.676490e-01 -4.742169e-03 3.351113e+00) (0.000000e+00 0.000000e+00 0.000000e+00))
0.0001575     	((-3.740136e-01 1.150585e+01 6.102674e-01) (-1.760882e-03 3.330327e-01 2.775087e-04) (0.000000e+00 0.000000e+00 0.000000e+00)) ((-3.838974e+00 -6.105485e+00 1.191162e+02) (-2.680496e-01 -4.180519e-03 3.348510e+00) (0.000000e+00 0.000000e+00 0.000000e+00))
0.00016       	((-3.885535e-01 1.149950e+01 6.059396e-01) (-1.746416e-03 3.328432e-01 1.431947e-04) (0.000000e+00 0.000000e+00 0.000000e+00)) ((-3.879158e+00 -6.078694e+00 1.191989e+02) (-2.692611e-01 -2.836897e-03 3.346467e+00) (0.000000e+00 0.000000e+00 0.000000e+00))
0.0001625     	((-3.976824e-01 1.149232e+01 6.061380e-01) (-1.788738e-03 3.325258e-01 6.603678e-05) (0.000000e+00 0.000000e+00 0.000000e+00)) ((-3.873429e+00 -6.093597e+00 1.192195e+02) (-2.698588e-01 -2.103191e-03 3.343684e+00) (0.000000e+00 0.000000e+00 0.000000e+00))
0.000165      	((-4.079274e-01 1.148634e+01 6.097754e-01) (-1.760091e-03 3.323385e-01 -6.452577e-05) (0.000000e+00 0.000000e+00 0.000000e+00)) ((-3.833866e+00 -6.143223e+00 1.192613e+02) (-2.710649e-01 -7.932831e-04 3.341517e+00) (0.000000e+00 0.000000e+00 0.000000e+00))
0.0001675     	((-4.135836e-01 1.148055e+01 6.168932e-01) (-1.793651e-03 3.320393e-01 -1.296014e-04) (0.000000e+00 0.000000e+00 0.000000e+00)) ((-3.759972e+00 -6.224501e+00 1.192591e+02) (-2.715727e-01 -1.806559e-04 3.338825e+00) (0.000000e+00 0.000000e+00 0.000000e+00))
0.00017       	((-4.204555e-01 1.147705e+01 6.262531e-01) (-1.764471e-03 3.318674e-01 -2.505241e-04) (0.000000e+00 0.000000e+00 0.000000e+00)) ((-3.665501e+00 -6.328668e+00 1.192903e+02) (-2.726986e-01 1.026934e-03 3.336801e+00) (0.000000e+00 0.000000e+00 0.000000e+00))
0.0001725     	((-4.236737e-01 1.147447e+01 6.375817e-01) (-1.784929e-03 3.316021e-01 -2.958427e-04) (0.000000e+00 0.000000e+00 0.000000e+00)) ((-3.552582e+00 -6.450121e+00 1.192948e+02) (-2.730352e-01 1.444586e-03 3.334319e+00) (0.000000e+00 0.000000e+00 0.000000e+00))
0.000175      	((-4.287974e-01 1.147397e+01 6.497257e-01) (-1.746296e-03 3.314697e-01 -3.905083e-04) (0.000000e+00 0.000000e+00 0.000000e+00)) ((-3.433163e+00 -6.580806e+00 1.193382e+02) (-2.739223e-01 2.392059e-03 3.332596e+00) (0.000000e+00 0.000000e+00 0.000000e+00))
0.0001775     	((-4.304413e-01 1.147366e+01 6.628281e-01) (-1.774347e-03 3.312153e-01 -4.017226e-04) (0.000000e+00 0.000000e+00 0.000000e+00)) ((-3.304717e+00 -6.718846e+00 1.193497e+02) (-2.739198e-01 2.463706e-03 3.330296e+00) (0.000000e+00 0.000000e+00 0.000000e+00))
0.00018       	((-4.359054e-01 1.147495e+01 6.756399e-01) (-1.735939e-03 3.311068e-01 -4.581221e-04) (0.000000e+00 0.000000e+00 0.000000e+00)) ((-3.180231e+00 -6.856129e+00 1.194145e+02) (-2.744337e-01 3.030102e-03 3.328818e+00) (0.000000e+00 0.000000e+00 0.000000e+00))
0.0001825     	((-4.389443e-01 1.147596e+01 6.886305e-01) (-1.769978e-03 3.308740e-01 -4.410692e-04) (0.000000e+00 0.000000e+00 0.000000e+00)) ((-3.054044e+00 -6.993519e+00 1.194535e+02) (-2.741523e-01 2.816780e-03 3.326798e+00) (0.000000e+00 0.000000e+00 0.000000e+00))
0.000185      	((-4.461093e-01 1.147817e+01 7.009007e-01) (-1.751511e-03 3.307853e-01 -4.513729e-04) (0.000000e+00 0.000000e+00 0.000000e+00)) ((-2.935655e+00 -7.126013e+00 1.195451e+02) (-2.742264e-01 2.909430e-03 3.325720e+00) (0.000000e+00 0.000000e+00 0.000000e+00))
0.0001875     	((-4.520649e-01 1.147987e+01 7.126171e-01) (-1.793549e-03 3.306291e-01 -3.957238e-04) (0.000000e+00 0.000000e+00 0.000000e+00)) ((-2.822385e+00 -7.252047e+00 1.196209e+02) (-2.736221e-01 2.302473e-03 3.324556e+00) (0.000000e+00 0.000000e+00 0.000000e+00))
0.00019       	((-4.612335e-01 1.148240e+01 7.231692e-01) (-1.791147e-03 3.305960e-01 -3.832508e-04) (0.000000e+00 0.000000e+00 0.000000e+00)) ((-2.720977e+00 -7.368265e+00 1.197367e+02) (-2.735082e-01 2.155556e-03 3.324201e+00) (0.000000e+00 0.000000e+00 0.000000e+00))
0.0001925     	((-4.682058e-01 1.148430e+01 7.329129e-01) (-1.854501e-03 3.304557e-01 -3.019423e-04) (0.000000e+00 0.000000e+00 0.000000e+00)) ((-2.627232e+00 -7.474956e+00 1.198260e+02) (-2.726632e-01 1.279798e-03 3.323411e+00) (0.000000e+00 0.000000e+00 0.000000e+00))
0.000195      	((-4.794404e-01 1.148705e+01 7.409427e-01) (-1.855355e-03 3.304635e-01 -2.863036e-04) (0.000000e+00 0.000000e+00 0.000000e+00)) ((-2.550828e+00 -7.567041e+00 1.199658e+02) (-2.725442e-01 1.101013e-03 3.323506e+00) (0.000000e+00 0.000000e+00 0.000000e+00))
0.0001975     	((-4.884075e-01 1.148877e+01 7.479735e-01) (-1.929050e-03 3.303427e-01 -2.159490e-04) (0.000000e+00 0.000000e+00 0.000000e+00)) ((-2.483740e+00 -7.647727e+00 1.200744e+02) (-2.718180e-01 3.294222e-04 3.323019e+00) (0.000000e+00 0.000000e+00 0.000000e+00))
0.0002        	((-5.017459e-01 1.149109e+01 7.533192e-01) (-1.947211e-03 3.303462e-01 -1.913597e-04) (0.000000e+00 0.000000e+00 0.000000e+00)) ((-2.433520e+00 -7.714199e+00 1.202319e+02) (-2.716119e-01 5.083472e-05 3.323246e+00) (0.000000e+00 0.000000e+00 0.000000e+00))
0.0002025     	((-5.137327e-01 1.149240e+01 7.576426e-01) (-2.025006e-03 3.302600e-01 -1.192243e-04) (0.000000e+00 0.000000e+00 0.000000e+00)) ((-2.392751e+00 -7.769585e+00 1.203670e+02) (-2.708905e-01 -7.411440e-04 3.323154e+00) (0.000000e+00 0.000000e+00 0.000000e+00))
0.000205      	((-5.286634e-01 1.149416e+01 7.606462e-01) (-2.055726e-03 3.302868e-01 -1.022817e-04) (0.000000e+00 0.000000e+00 0.000000e+00)) ((-2.365175e+00 -7.813525e+00 1.205357e+02) (-2.707689e-01 -9.520869e-04 3.323742e+00) (0.000000e+00 0.000000e+00 0.000000e+00))
0.0002075     	((-5.409347e-01 1.149503e+01 7.628987e-01) (-2.149335e-03 3.302040e-01 -2.337373e-05) (0.000000e+00 0.000000e+00 0.000000e+00)) ((-2.344506e+00 -7.848217e+00 1.206701e+02) (-2.699781e-01 -1.822906e-03 3.323843e+00) (0.000000e+00 0.000000e+00 0.000000e+00))
0.00021       	((-5.561231e-01 1.149644e+01 7.637378e-01) (-2.184653e-03 3.302511e-01 -1.269860e-05) (0.000000e+00 0.000000e+00 0.000000e+00)) ((-2.338040e+00 -7.870374e+00 1.208384e+02) (-2.699202e-01 -1.975136e-03 3.324687e+00) (0.000000e+00 0.000000e+00 0.000000e+00))
0.0002125     	((-5.677593e-01 1.149674e+01 7.638976e-01) (-2.291004e-03 3.301628e-01 5.690210e-05) (0.000000e+00 0.000000e+00 0.000000e+00)) ((-2.337674e+00 -7.883334e+00 1.209615e+02) (-2.692023e-01 -2.761778e-03 3.324863e+00) (0.000000e+00 0.000000e+00 0.000000e+00))
0.000215      	((-5.823718e-01 1.149755e+01 7.626929e-01) (-2.334740e-03 3.301984e-01 7.710148e-05) (0.000000e+00 0.000000e+00 0.000000e+00)) ((-2.350960e+00 -7.884157e+00 1.211181e+02) (-2.690312e-01 -3.014158e-03 3.325678e+00) (0.000000e+00 0.000000e+00 0.000000e+00))
0.0002175     	((-5.936811e-01 1.149714e+01 7.608221e-01) (-2.439565e-03 3.301156e-01 1.562896e-04) (0.000000e+00 0.000000e+00 0.000000e+00)) ((-2.370064e+00 -7.875936e+00 1.212304e+02) (-2.682105e-01 -3.893890e-03 3.325898e+00) (0.000000e+00 0.000000e+00 0.000000e+00))
0.00022       	((-6.065576e-01 1.149698e+01 7.578099e-01) (-2.482565e-03 3.301510e-01 1.730932e-04) (0.000000e+00 0.000000e+00 0.000000e+00)) ((-2.400441e+00 -7.856845e+00 1.213598e+02) (-2.680581e-01 -4.109191e-03 3.326703e+00) (0.000000e+00 0.000000e+00 0.000000e+00))
0.0002225     	((-6.153902e-01 1.149561e+01 7.541621e-01) (-2.577549e-03 3.300769e-01 2.570181e-04) (0.000000e+00 0.000000e+00 0.000000e+00)) ((-2.436283e+00 -7.828481e+00 1.214372e+02) (-2.671850e-01 -5.026211e-03 3.326911e+00) (0.000000e+00 0.000000e+00 0.000000e+00))
0.000225      	((-6.251830e-01 1.149441e+01 7.493982e-01) (-2.607662e-03 3.301224e-01 2.715973e-04) (0.000000e+00 0.000000e+00 0.000000e+00)) ((-2.483083e+00 -7.789071e+00 1.215248e+02) (-2.670498e-01 -5.206712e-03 3.327688e+00) (0.000000e+00 0.000000e+00 0.000000e+00))
0.0002275     	((-6.297432e-01 1.149186e+01 7.442667e-01) (-2.697827e-03 3.300280e-01 3.500435e-04) (0.000000e+00 0.000000e+00 0.000000e+00)) ((-2.532674e+00 -7.742308e+00 1.215474e+02) (-2.662083e-01 -6.061388e-03 3.327639e+00) (0.000000e+00 0.000000e+00 0.000000e+00))
0.00023       	((-6.361608e-01 1.148967e+01 7.381040e-01) (-2.706714e-03 3.300714e-01 3.663333e-04) (0.000000e+00 0.000000e+00 0.000000e+00)) ((-2.592459e+00 -7.685876e+00 1.215906e+02) (-2.660506e-01 -6.240378e-03 3.328181e+00) (0.000000e+00 0.000000e+00 0.000000e+00))
0.0002325     	((-6.377231e-01 1.148607e+01 7.318334e-01) (-2.773548e-03 3.299758e-01 4.339406e-04) (0.000000e+00 0.000000e+00 0.000000e+00)) ((-2.652409e+00 -7.624951e+00 1.215718e+02) (-2.653099e-01 -6.966736e-03 3.327885e+00) (0.000000e+00 0.000000e+00 0.000000e+00))
0.000235      	((-6.407438e-01 1.148279e+01 7.249393e-01) (-2.772482e-03 3.299929e-01 4.512320e-04) (0.000000e+00 0.000000e+00 0.000000e+00)) ((-2.718494e+00 -7.558257e+00 1.215691e+02) (-2.651259e-01 -7.144529e-03 3.328057e+00) (0.000000e+00 0.000000e+00 0.000000e+00))
0.0002375     	((-6.400141e-01 1.147839e+01 7.179941e-01) (-2.811096e-03 3.299273e-01 5.121621e-04) (0.000000e+00 0.000000e+00 0.000000e+00)) ((-2.784238e+00 -7.488406e+00 1.215180e+02) (-2.644710e-01 -7.781746e-03 3.327780e+00) (0.000000e+00 0.000000e+00 0.000000e+00))
0.00024       	((-6.398516e-01 1.147426e+01 7.108177e-01) (-2.793754e-03 3.299617e-01 5.205246e-04) (0.000000e+00 0.000000e+00 0.000000e+00)) ((-2.852205e+00 -7.416319e+00 1.214742e+02) (-2.643873e-01 -7.856564e-03 3.327958e+00) (0.000000e+00 0.000000e+00 0.000000e+00))
0.0002425     	((-6.351777e-01 1.146913e+01 7.041715e-01) (-2.827927e-03 3.298763e-01 5.851534e-04) (0.000000e+00 0.000000e+00 0.000000e+00)) ((-2.914257e+00 -7.346575e+00 1.213760e+02) (-2.636899e-01 -8.525293e-03 3.327429e+00) (0.000000e+00 0.000000e+00 0.000000e+00))
0.000245      	((-6.327389e-01 1.146465e+01 6.974554e-01) (-2.785673e-03 3.299276e-01 5.784189e-04) (0.000000e+00 0.000000e+00 0.000000e+00)) ((-2.977196e+00 -7.277355e+00 1.213052e+02) (-2.637683e-01 -8.430993e-03 3.327527e+00) (0.000000e+00 0.000000e+00 0.000000e+00))
0.0002475     	((-6.262287e-01 1.145923e+01 6.916277e-01) (-2.804334e-03 3.298402e-01 6.185251e-04) (0.000000e+00 0.000000e+00 0.000000e+00)) ((-3.030796e+00 -7.214497e+00 1.211851e+02) (-2.633104e-01 -8.842714e-03 3.326821e+00) (0.000000e+00 0.000000e+00 0.000000e+00))
0.00025       	((-6.226799e-01 1.145469e+01 6.860447e-01) (-2.758832e-03 3.298650e-01 6.146283e-04) (0.000000e+00 0.000000e+00 0.000000e+00)) ((-3.082403e+00 -7.155918e+00 1.211020e+02) (-2.633506e-01 -8.772503e-03 3.326617e+00) (0.000000e+00 0.000000e+00 0.000000e+00))
0.0002525     	((-6.169176e-01 1.144963e+01 6.811877e-01) (-2.759508e-03 3.298045e-01 6.493798e-04) (0.000000e+00 0.000000e+00 0.000000e+00)) ((-3.126563e+00 -7.103346e+00 1.209923e+02) (-2.629664e-01 -9.116954e-03 3.326001e+00) (0.000000e+00 0.000000e+00 0.000000e+00))
0.000255      	((-6.133972e-01 1.144560e+01 6.766820e-01) (-2.708307e-03 3.298429e-01 6.324172e-04) (0.000000e+00 0.000000e+00 0.000000e+00)) ((-3.167908e+00 -7.055846e+00 1.209143e+02) (-2.631427e-01 -8.910717e-03 3.325873e+00) (0.000000e+00 0.000000e+00 0.000000e+00))
0.0002575     	((-6.073226e-01 1.144142e+01 6.730198e-01) (-2.710726e-03 3.297674e-01 6.700170e-04) (0.000000e+00 0.000000e+00 0.000000e+00)) ((-3.201069e+00 -7.015471e+00 1.208103e+02) (-2.627214e-01 -9.283275e-03 3.325121e+00) (0.000000e+00 0.000000e+00 0.000000e+00))
0.00026       	((-6.047517e-01 1.143867e+01 6.695329e-01) (-2.647883e-03 3.298111e-01 6.340858e-04) (0.000000e+00 0.000000e+00 0.000000e+00)) ((-3.233548e+00 -6.979267e+00 1.207548e+02) (-2.630809e-01 -8.877130e-03 3.324931e+00) (0.000000e+00 0.000000e+00 0.000000e+00))
0.0002625     	((-5.996525e-01 1.143574e+01 6.670594e-01) (-2.653113e-03 3.297220e-01 6.581700e-04) (0.000000e+00 0.000000e+00 0.000000e+00)) ((-3.256225e+00 -6.951885e+00 1.206736e+02) (-2.627798e-01 -9.116784e-03 3.324069e+00) (0.000000e+00 0.000000e+00 0.000000e+00))
0.000265      	((-5.990157e-01 1.143419e+01 6.647409e-01) (-2.599488e-03 3.297573e-01 6.375385e-04) (0.000000e+00 0.000000e+00 0.000000e+00)) ((-3.278300e+00 -6.929065e+00 1.206498e+02) (-2.629907e-01 -8.875511e-03 3.323889e+00) (0.000000e+00 0.000000e+00 0.000000e+00))
0.0002675     	((-5.972942e-01 1.143238e+01 6.629295e-01) (-2.609855e-03 3.296765e-01 6.748555e-04) (0.000000e+00 0.000000e+00 0.000000e+00)) ((-3.295390e+00 -6.911034e+00 1.206138e+02) (-2.625691e-01 -9.256144e-03 3.323165e+00) (0.000000e+00 0.000000e+00 0.000000e+00))
0.00027       	((-5.994716e-01 1.143188e+01 6.610293e-01) (-2.566492e-03 3.297078e-01 6.483500e-04) (0.000000e+00 0.000000e+00 0.000000e+00)) ((-3.314243e+00 -6.894871e+00 1.206291e+02) (-2.628284e-01 -8.966603e-03 3.323048e+00) (0.000000e+00 0.000000e+00 0.000000e+00))
0.0002725     	((-6.000933e-01 1.143130e+01 6.595263e-01) (-2.586471e-03 3.296231e-01 6.902163e-04) (0.000000e+00 0.000000e+00 0.000000e+00)) ((-3.329343e+00 -6.882011e+00 1.206293e+02) (-2.623516e-01 -9.403270e-03 3.322384e+00) (0.000000e+00 0.000000e+00 0.000000e+00))
0.000275      	((-6.042465e-01 1.143202e+01 6.579097e-01) (-2.554801e-03 3.296530e-01 6.651668e-04) (0.000000e+00 0.000000e+00 0.000000e+00)) ((-3.346451e+00 -6.870351e+00 1.206774e+02) (-2.625849e-01 -9.141316e-03 3.322372e+00) (0.000000e+00 0.000000e+00 0.000000e+00))