# Forces      
# CofR        : (0.000000e+00 0.000000e+00 0.000000e+00)
# Time        forces(pressure viscous porous)	moments(pressure viscous porous)
2.5e-06       	((1.308203e+00 2.957992e+01 1.824437e+00) (4.047106e-04 6.490555e-01 3.909985e-03) (0.000000e+00 0.000000e+00 0.000000e+00)) ((-9.598847e+00 -1.710100e+01 2.822674e+02) (-6.347050e-01 -3.674289e-02 6.477606e+00) (0.000000e+00 0.000000e+00 0.000000e+00))
5e-06         	((2.269275e+00 1.278167e+02 1.844017e+00) (4.421886e-03 8.787698e-01 -3.782891e-03) (0.000000e+00 0.000000e+00 0.000000e+00)) ((-9.951571e+01 -1.764275e+01 1.253197e+03) (-8.589584e-01 4.292885e-02 8.730582e+00) (0.000000e+00 0.000000e+00 0.000000e+00))
7.5e-06       	((2.140791e+00 2.657410e+02 2.713593e+01) (1.199609e-02 9.441352e-01 -3.301729e-03) (0.000000e+00 0.000000e+00 0.000000e+00)) ((1.661498e+01 -2.711179e+02 2.632578e+03) (-8.373678e-01 4.511173e-02 9.309154e+00) (0.000000e+00 0.000000e+00 0.000000e+00))
1e-05         	((3.614772e+00 1.786584e+02 1.103682e+01) (1.630815e-02 8.175702e-01 -7.269569e-02) (0.000000e+00 0.000000e+00 0.000000e+00)) ((-5.199356e+01 -1.075052e+02 1.748267e+03) (-1.410465e+00 7.472632e-01 7.999407e+00) (0.000000e+00 0.000000e+00 0.000000e+00))
1.25e-05      	((5.250564e+00 5.485491e+01 -1.318477e+01) (3.229978e-02 7.607031e-01 -1.303057e-01) (0.000000e+00 0.000000e+00 0.000000e+00)) ((-1.698462e+02 1.379317e+02 4.955153e+02) (-1.955211e+00 1.335190e+00 7.269953e+00) (0.000000e+00 0.000000e+00 0.000000e+00))
1.5e-05       	((1.573318e+00 1.233094e+01 -1.148576e+01) (1.868306e-02 7.052657e-01 -6.807259e-02) (0.000000e+00 0.000000e+00 0.000000e+00)) ((-1.162219e+02 1.180876e+02 1.077187e+02) (-1.287769e+00 6.972071e-01 6.854907e+00) (0.000000e+00 0.000000e+00 0.000000e+00))
1.75e-05      	((-2.124033e+00 2.131962e+01 6.796579e-01) (5.368154e-03 6.910132e-01 -6.016394e-03) (0.000000e+00 0.000000e+00 0.000000e+00)) ((-9.947813e+00 -7.120924e+00 2.345910e+02) (-6.605973e-01 6.396667e-02 6.847277e+00) (0.000000e+00 0.000000e+00 0.000000e+00))
2e-05         	((-2.783883e+00 3.620730e+01 7.339068e+00) (5.319009e-03 6.835542e-01 6.607431e-03) (0.000000e+00 0.000000e+00 0.000000e+00)) ((3.848542e+01 -7.471805e+01 3.897931e+02) (-5.318831e-01 -6.257369e-02 6.775408e+00) (0.000000e+00 0.000000e+00 0.000000e+00))
2.25e-05      	((-1.527593e+00 3.682751e+01 5.568493e+00) (3.180798e-03 6.697762e-01 7.190770e-03) (0.000000e+00 0.000000e+00 0.000000e+00)) ((2.007127e+01 -5.624058e+01 3.832982e+02) (-5.100650e-01 -6.986044e-02 6.658730e+00) (0.000000e+00 0.000000e+00 0.000000e+00))
2.5e-05       	((-3.318682e-01 2.601458e+01 -3.598017e-02) (2.431943e-03 6.521126e-01 -3.912242e-05) (0.000000e+00 0.000000e+00 0.000000e+00)) ((-2.366071e+01 6.293249e-01 2.633386e+02) (-5.616171e-01 2.247775e-03 6.488736e+00) (0.000000e+00 0.000000e+00 0.000000e+00))
2.75e-05      	((-1.871836e-02 1.672952e+01 -3.446886e+00) (1.050179e-03 6.260594e-01 -7.571836e-03) (0.000000e+00 0.000000e+00 0.000000e+00)) ((-4.724333e+01 3.488906e+01 1.675458e+02) (-6.081230e-01 7.647048e-02 6.242138e+00) (0.000000e+00 0.000000e+00 0.000000e+00))
3e-05         	((-2.614007e-01 1.609810e+01 -2.457584e+00) (1.459423e-04 6.044041e-01 -8.038540e-03) (0.000000e+00 0.000000e+00 0.000000e+00)) ((-3.658260e+01 2.476146e+01 1.637176e+02) (-5.899811e-01 8.039748e-02 6.035018e+00) (0.000000e+00 0.000000e+00 0.000000e+00))
3.25e-05      	((-4.613403e-01 2.118189e+01 7.464685e-01) (-1.129303e-04 5.959170e-01 -5.804624e-03) (0.000000e+00 0.000000e+00 0.000000e+00)) ((-1.029695e+01 -7.394124e+00 2.164709e+02) (-5.604333e-01 5.787544e-02 5.952782e+00) (0.000000e+00 0.000000e+00 0.000000e+00))
3.5e-05       	((-3.674914e-01 2.519962e+01 2.854824e+00) (-3.307564e-04 5.950529e-01 -1.595397e-03) (0.000000e+00 0.000000e+00 0.000000e+00)) ((6.028955e+00 -2.830680e+01 2.555995e+02) (-5.200137e-01 1.560645e-02 5.946135e+00) (0.000000e+00 0.000000e+00 0.000000e+00))
3.75e-05      	((-1.276282e-01 2.487025e+01 2.653068e+00) (-4.259503e-04 5.934075e-01 1.107570e-03) (0.000000e+00 0.000000e+00 0.000000e+00)) ((3.994082e+00 -2.601494e+01 2.498683e+02) (-4.937660e-01 -1.155431e-02 5.930393e+00) (0.000000e+00 0.000000e+00 0.000000e+00))
4e-05         	((9.311926e-03 2.183261e+01 1.264623e+00) (-9.650929e-04 5.869127e-01 1.062642e-03) (0.000000e+00 0.000000e+00 0.000000e+00)) ((-6.824657e+00 -1.198560e+01 2.181551e+02) (-4.895802e-01 -1.159665e-02 5.870757e+00) (0.000000e+00 0.000000e+00 0.000000e+00))
4.25e-05      	((-4.538080e-02 1.937792e+01 3.328672e-01) (-1.890414e-03 5.766594e-01 -8.764554e-04) (0.000000e+00 0.000000e+00 0.000000e+00)) ((-1.355262e+01 -2.708105e+00 1.941984e+02) (-5.002611e-01 6.979234e-03 5.777639e+00) (0.000000e+00 0.000000e+00 0.000000e+00))
4.5e-05       	((-2.333232e-01 1.916543e+01 4.918685e-01) (-2.767993e-03 5.671549e-01 -2.829074e-03) (0.000000e+00 0.000000e+00 0.000000e+00)) ((-1.172150e+01 -4.439059e+00 1.939613e+02) (-5.119117e-01 2.580065e-02 5.691525e+00) (0.000000e+00 0.000000e+00 0.000000e+00))
4.75e-05      	((-4.260496e-01 2.051631e+01 1.254965e+00) (-3.590385e-03 5.617476e-01 -3.451444e-03) (0.000000e+00 0.000000e+00 0.000000e+00)) ((-5.551290e+00 -1.218938e+01 2.093700e+02) (-5.143527e-01 3.146077e-02 5.645705e+00) (0.000000e+00 0.000000e+00 0.000000e+00))
5e-05         	((-5.437218e-01 2.181094e+01 1.852962e+00) (-4.064483e-03 5.599874e-01 -2.995229e-03) (0.000000e+00 0.000000e+00 0.000000e+00)) ((-1.029104e+00 -1.821512e+01 2.234583e+02) (-5.095127e-01 2.668922e-02 5.632721e+00) (0.000000e+00 0.000000e+00 0.000000e+00))
5.25e-05      	((-5.735200e-01 2.213004e+01 1.966942e+00) (-4.322328e-03 5.596162e-01 -2.688994e-03) (0.000000e+00 0.000000e+00 0.000000e+00)) ((-3.303875e-01 -1.934027e+01 2.269265e+02) (-5.071816e-01 2.357982e-02 5.631443e+00) (0.000000e+00 0.000000e+00 0.000000e+00))
5.5e-05       	((-5.716532e-01 2.163713e+01 1.789216e+00) (-4.404805e-03 5.583770e-01 -3.013993e-03) (0.000000e+00 0.000000e+00 0.000000e+00)) ((-1.676872e+00 -1.754620e+01 2.219745e+02) (-5.101995e-01 2.686898e-02 5.619769e+00) (0.000000e+00 0.000000e+00 0.000000e+00))
5.75e-05      	((-5.885633e-01 2.095545e+01 1.603130e+00) (-4.327092e-03 5.557704e-01 -3.891868e-03) (0.000000e+00 0.000000e+00 0.000000e+00)) ((-2.880089e+00 -1.570128e+01 2.153278e+02) (-5.173188e-01 3.578198e-02 5.592821e+00) (0.000000e+00 0.000000e+00 0.000000e+00))
6e-05         	((-6.529185e-01 2.057755e+01 1.581584e+00) (-4.283549e-03 5.524234e-01 -5.137608e-03) (0.000000e+00 0.000000e+00 0.000000e+00)) ((-2.736891e+00 -1.555041e+01 2.121892e+02) (-5.274522e-01 4.833015e-02 5.558850e+00) (0.000000e+00 0.000000e+00 0.000000e+00))
6.25e-05      	((-7.596504e-01 2.054553e+01 1.694550e+00) (-4.298139e-03 5.491144e-01 -6.525100e-03) (0.000000e+00 0.000000e+00 0.000000e+00)) ((-1.607232e+00 -1.678288e+01 2.129302e+02) (-5.390379e-01 6.225991e-02 5.525891e+00) (0.000000e+00 0.000000e+00 0.000000e+00))
6.5e-05       	((-8.774688e-01 2.073390e+01 1.856567e+00) (-4.390232e-03 5.463430e-01 -7.812900e-03) (0.000000e+00 0.000000e+00 0.000000e+00)) ((-2.232114e-01 -1.851146e+01 2.159811e+02) (-5.500369e-01 7.513772e-02 5.499112e+00) (0.000000e+00 0.000000e+00 0.000000e+00))
6.75e-05      	((-9.825518e-01 2.093566e+01 1.997249e+00) (-4.587495e-03 5.438408e-01 -8.793075e-03) (0.000000e+00 0.000000e+00 0.000000e+00)) ((9.259197e-01 -2.001287e+01 2.190389e+02) (-5.582146e-01 8.490448e-02 5.476070e+00) (0.000000e+00 0.000000e+00 0.000000e+00))
7e-05         	((-1.077329e+00 2.102120e+01 2.102491e+00) (-4.791722e-03 5.419724e-01 -9.648682e-03) (0.000000e+00 0.000000e+00 0.000000e+00)) ((1.838231e+00 -2.114861e+01 2.208367e+02) (-5.655921e-01 9.341789e-02 5.459464e+00) (0.000000e+00 0.000000e+00 0.000000e+00))
7.25e-05      	((-1.177298e+00 2.098529e+01 2.197971e+00) (-5.027938e-03 5.401781e-01 -1.032340e-02) (0.000000e+00 0.000000e+00 0.000000e+00)) ((2.781550e+00 -2.218840e+01 2.214801e+02) (-5.711961e-01 1.000727e-01 5.443921e+00) (0.000000e+00 0.000000e+00 0.000000e+00))
7.5e-05       	((-1.290653e+00 2.089432e+01 2.308599e+00) (-5.309872e-03 5.383646e-01 -1.091597e-02) (0.000000e+00 0.000000e+00 0.000000e+00)) ((3.939334e+00 -2.338843e+01 2.217150e+02) (-5.759388e-01 1.058641e-01 5.428640e+00) (0.000000e+00 0.000000e+00 0.000000e+00))
7.75e-05      	((-1.411871e+00 2.081752e+01 2.438414e+00) (-5.590602e-03 5.365597e-01 -1.149790e-02) (0.000000e+00 0.000000e+00 0.000000e+00)) ((5.280754e+00 -2.478362e+01 2.221752e+02) (-5.806247e-01 1.115489e-01 5.413450e+00) (0.000000e+00 0.000000e+00 0.000000e+00))
8e-05         	((-1.531404e+00 2.078634e+01 2.576960e+00) (-5.948116e-03 5.348703e-01 -1.205939e-02) (0.000000e+00 0.000000e+00 0.000000e+00)) ((6.667929e+00 -2.626136e+01 2.230762e+02) (-5.852388e-01 1.169683e-01 5.400165e+00) (0.000000e+00 0.000000e+00 0.000000e+00))
8.25e-05      	((-1.642297e+00 2.079638e+01 2.715967e+00) (-6.220332e-03 5.332068e-01 -1.265904e-02) (0.000000e+00 0.000000e+00 0.000000e+00)) ((8.020963e+00 -2.773447e+01 2.243025e+02) (-5.903139e-01 1.228644e-01 5.386321e+00) (0.000000e+00 0.000000e+00 0.000000e+00))
8.5e-05       	((-1.744043e+00 2.082495e+01 2.852046e+00) (-6.543417e-03 5.318369e-01 -1.327196e-02) (0.000000e+00 0.000000e+00 0.000000e+00)) ((9.328432e+00 -2.917024e+01 2.256220e+02) (-5.958741e-01 1.288637e-01 5.375892e+00) (0.000000e+00 0.000000e+00 0.000000e+00))
8.75e-05      	((-1.840915e+00 2.085419e+01 2.984280e+00) (-6.760416e-03 5.306997e-01 -1.391870e-02) (0.000000e+00 0.000000e+00 0.000000e+00)) ((1.059847e+01 -3.056427e+01 2.268998e+02) (-6.021143e-01 1.352923e-01 5.366766e+00) (0.000000e+00 0.000000e+00 0.000000e+00))
9e-05         	((-1.935655e+00 2.087500e+01 3.110449e+00) (-7.045102e-03 5.297370e-01 -1.454425e-02) (0.000000e+00 0.000000e+00 0.000000e+00)) ((1.181719e+01 -3.189704e+01 2.280728e+02) (-6.083229e-01 1.414209e-01 5.360026e+00) (0.000000e+00 0.000000e+00 0.000000e+00))
9.25e-05      	((-2.030186e+00 2.088642e+01 3.229426e+00) (-7.248369e-03 5.288579e-01 -1.519159e-02) (0.000000e+00 0.000000e+00 0.000000e+00)) ((1.297300e+01 -3.315964e+01 2.291505e+02) (-6.148899e-01 1.478089e-01 5.353327e+00) (0.000000e+00 0.000000e+00 0.000000e+00))
9.5e-05       	((-2.119305e+00 2.088940e+01 3.337420e+00) (-7.551230e-03 5.282025e-01 -1.583988e-02) (0.000000e+00 0.000000e+00 0.000000e+00)) ((1.402708e+01 -3.431081e+01 2.300889e+02) (-6.216717e-01 1.540769e-01 5.349803e+00) (0.000000e+00 0.000000e+00 0.000000e+00))
9.75e-05      	((-2.197433e+00 2.088655e+01 3.434029e+00) (-7.732945e-03 5.276123e-01 -1.650897e-02) (0.000000e+00 0.000000e+00 0.000000e+00)) ((1.497303e+01 -3.534392e+01 2.308550e+02) (-6.287243e-01 1.606291e-01 5.345742e+00) (0.000000e+00 0.000000e+00 0.000000e+00))
0.0001        	((-2.256982e+00 2.088044e+01 3.518635e+00) (-7.977932e-03 5.272118e-01 -1.713348e-02) (0.000000e+00 0.000000e+00 0.000000e+00)) ((1.580321e+01 -3.624800e+01 2.313959e+02) (-6.354348e-01 1.666497e-01 5.344162e+00) (0.000000e+00 0.000000e+00 0.000000e+00))
0.0001025     	((-2.294783e+00 2.087335e+01 3.593425e+00) (-8.060120e-03 5.268607e-01 -1.770337e-02) (0.000000e+00 0.000000e+00 0.000000e+00)) ((1.653762e+01 -3.704276e+01 2.317009e+02) (-6.415859e-01 1.722455e-01 5.341475e+00) (0.000000e+00 0.000000e+00 0.000000e+00))
0.000105      	((-2.309077e+00 2.086855e+01 3.658171e+00) (-8.199477e-03 5.267102e-01 -1.818931e-02) (0.000000e+00 0.000000e+00 0.000000e+00)) ((1.717131e+01 -3.772300e+01 2.317860e+02) (-6.469856e-01 1.769265e-01 5.341313e+00) (0.000000e+00 0.000000e+00 0.000000e+00))
0.0001075     	((-2.301721e+00 2.086823e+01 3.714811e+00) (-8.307565e-03 5.264153e-01 -1.857300e-02) (0.000000e+00 0.000000e+00 0.000000e+00)) ((1.772128e+01 -3.830677e+01 2.316934e+02) (-6.511511e-01 1.805694e-01 5.339423e+00) (0.000000e+00 0.000000e+00 0.000000e+00))
0.00011       	((-2.278581e+00 2.087057e+01 3.760411e+00) (-8.163138e-03 5.266575e-01 -1.895963e-02) (0.000000e+00 0.000000e+00 0.000000e+00)) ((1.816008e+01 -3.876710e+01 2.314676e+02) (-6.558460e-01 1.845207e-01 5.340334e+00) (0.000000e+00 0.000000e+00 0.000000e+00))
0.0001125     	((-2.245724e+00 2.087975e+01 3.795580e+00) (-8.077734e-03 5.266411e-01 -1.930097e-02) (0.000000e+00 0.000000e+00 0.000000e+00)) ((1.848887e+01 -3.911274e+01 2.312127e+02) (-6.597916e-01 1.879198e-01 5.339287e+00) (0.000000e+00 0.000000e+00 0.000000e+00))
0.000115      	((-2.205943e+00 2.089337e+01 3.819657e+00) (-7.939339e-03 5.269107e-01 -1.962778e-02) (0.000000e+00 0.000000e+00 0.000000e+00)) ((1.870319e+01 -3.933717e+01 2.309346e+02) (-6.638573e-01 1.912591e-01 5.340535e+00) (0.000000e+00 0.000000e+00 0.000000e+00))
0.0001175     	((-2.159447e+00 2.091020e+01 3.837628e+00) (-7.878549e-03 5.268814e-01 -1.989629e-02) (0.000000e+00 0.000000e+00 0.000000e+00)) ((1.885378e+01 -3.948854e+01 2.306229e+02) (-6.670359e-01 1.939147e-01 5.339616e+00) (0.000000e+00 0.000000e+00 0.000000e+00))
0.00012       	((-2.109835e+00 2.092341e+01 3.848803e+00) (-7.691412e-03 5.271430e-01 -2.016761e-02) (0.000000e+00 0.000000e+00 0.000000e+00)) ((1.894064e+01 -3.956292e+01 2.302467e+02) (-6.705364e-01 1.967764e-01 5.340312e+00) (0.000000e+00 0.000000e+00 0.000000e+00))
0.0001225     	((-2.055232e+00 2.093771e+01 3.858508e+00) (-8.072554e-03 5.263590e-01 -2.033578e-02) (0.000000e+00 0.000000e+00 0.000000e+00)) ((1.901223e+01 -3.961131e+01 2.298330e+02) (-6.719067e-01 1.979766e-01 5.336273e+00) (0.000000e+00 0.000000e+00 0.000000e+00))
0.000125      	((-1.998575e+00 2.094749e+01 3.865404e+00) (-7.447219e-03 5.270338e-01 -2.066178e-02) (0.000000e+00 0.000000e+00 0.000000e+00)) ((1.906097e+01 -3.962364e+01 2.293565e+02) (-6.764081e-01 2.018954e-01 5.336725e+00) (0.000000e+00 0.000000e+00 0.000000e+00))
0.0001275     	((-1.957094e+00 2.095429e+01 3.865499e+00) (-7.171365e-03 5.270361e-01 -2.094337e-02) (0.000000e+00 0.000000e+00 0.000000e+00)) ((1.904443e+01 -3.957912e+01 2.290064e+02) (-6.797456e-01 2.049806e-01 5.333984e+00) (0.000000e+00 0.000000e+00 0.000000e+00))
0.00013       	((-1.915521e+00 2.096708e+01 3.865926e+00) (-7.208756e-03 5.268349e-01 -2.112323e-02) (0.000000e+00 0.000000e+00 0.000000e+00)) ((1.902549e+01 -3.953476e+01 2.287171e+02) (-6.817997e-01 2.067425e-01 5.332318e+00) (0.000000e+00 0.000000e+00 0.000000e+00))
0.0001325     	((-1.878919e+00 2.097846e+01 3.866247e+00) (-6.790992e-03 5.269044e-01 -2.138141e-02) (0.000000e+00 0.000000e+00 0.000000e+00)) ((1.900710e+01 -3.949209e+01 2.284654e+02) (-6.849451e-01 2.097607e-01 5.328840e+00) (0.000000e+00 0.000000e+00 0.000000e+00))
0.000135      	((-1.845237e+00 2.099361e+01 3.866866e+00) (-7.123312e-03 5.263023e-01 -2.151513e-02) (0.000000e+00 0.000000e+00 0.000000e+00)) ((1.898866e+01 -3.945476e+01 2.282808e+02) (-6.860589e-01 2.107565e-01 5.326114e+00) (0.000000e+00 0.000000e+00 0.000000e+00))
0.0001375     	((-1.817029e+00 2.100435e+01 3.866875e+00) (-6.446991e-03 5.266973e-01 -2.183983e-02) (0.000000e+00 0.000000e+00 0.000000e+00)) ((1.896915e+01 -3.941702e+01 2.281071e+02) (-6.901689e-01 2.147414e-01 5.323296e+00) (0.000000e+00 0.000000e+00 0.000000e+00))
0.00014       	((-1.803298e+00 2.101250e+01 3.860158e+00) (-6.247183e-03 5.266930e-01 -2.207154e-02) (0.000000e+00 0.000000e+00 0.000000e+00)) ((1.888506e+01 -3.932825e+01 2.280535e+02) (-6.928707e-01 2.173001e-01 5.321227e+00) (0.000000e+00 0.000000e+00 0.000000e+00))
0.0001425     	((-1.788424e+00 2.102546e+01 3.854478e+00) (-6.222718e-03 5.262640e-01 -2.227150e-02) (0.000000e+00 0.000000e+00 0.000000e+00)) ((1.880685e+01 -3.925019e+01 2.280344e+02) (-6.947890e-01 2.193182e-01 5.316703e+00) (0.000000e+00 0.000000e+00 0.000000e+00))
0.000145      	((-1.774214e+00 2.103702e+01 3.846201e+00) (-5.898808e-03 5.264681e-01 -2.252641e-02) (0.000000e+00 0.000000e+00 0.000000e+00)) ((1.870431e+01 -3.914828e+01 2.280073e+02) (-6.978883e-01 2.222416e-01 5.315472e+00) (0.000000e+00 0.000000e+00 0.000000e+00))
0.0001475     	((-1.762150e+00 2.105344e+01 3.837925e+00) (-5.839874e-03 5.261885e-01 -2.274396e-02) (0.000000e+00 0.000000e+00 0.000000e+00)) ((1.859672e+01 -3.904968e+01 2.280481e+02) (-7.000903e-01 2.244692e-01 5.312095e+00) (0.000000e+00 0.000000e+00 0.000000e+00))
0.00015       	((-1.753190e+00 2.106816e+01 3.827776e+00) (-5.606133e-03 5.263420e-01 -2.301499e-02) (0.000000e+00 0.000000e+00 0.000000e+00)) ((1.847191e+01 -3.893636e+01 2.281028e+02) (-7.032658e-01 2.274506e-01 5.311257e+00) (0.000000e+00 0.000000e+00 0.000000e+00))
0.0001525     	((-1.744220e+00 2.108705e+01 3.821699e+00) (-6.060437e-03 5.254601e-01 -2.316521e-02) (0.000000e+00 0.000000e+00 0.000000e+00)) ((1.838353e+01 -3.886428e+01 2.281976e+02) (-7.041228e-01 2.284424e-01 5.306981e+00) (0.000000e+00 0.000000e+00 0.000000e+00))
0.000155      	((-1.732902e+00 2.110278e+01 3.819583e+00) (-5.462943e-03 5.260655e-01 -2.355491e-02) (0.000000e+00 0.000000e+00 0.000000e+00)) ((1.833814e+01 -3.882981e+01 2.282371e+02) (-7.089886e-01 2.330083e-01 5.307021e+00) (0.000000e+00 0.000000e+00 0.000000e+00))
0.0001575     	((-1.737270e+00 2.111565e+01 3.816561e+00) (-5.262936e-03 5.259594e-01 -2.386782e-02) (0.000000e+00 0.000000e+00 0.000000e+00)) ((1.828613e+01 -3.880254e+01 2.284058e+02) (-7.123369e-01 2.363375e-01 5.303957e+00) (0.000000e+00 0.000000e+00 0.000000e+00))
0.00016       	((-1.736706e+00 2.113456e+01 3.819038e+00) (-5.405298e-03 5.256930e-01 -2.411057e-02) (0.000000e+00 0.000000e+00 0.000000e+00)) ((1.828315e+01 -3.882559e+01 2.285834e+02) (-7.147889e-01 2.386246e-01 5.302678e+00) (0.000000e+00 0.000000e+00 0.000000e+00))
0.0001625     	((-1.732425e+00 2.115241e+01 3.826661e+00) (-5.118587e-03 5.256708e-01 -2.443397e-02) (0.000000e+00 0.000000e+00 0.000000e+00)) ((1.833275e+01 -3.889638e+01 2.287119e+02) (-7.183364e-01 2.421387e-01 5.299588e+00) (0.000000e+00 0.000000e+00 0.000000e+00))
0.000165      	((-1.720082e+00 2.117450e+01 3.839492e+00) (-5.610077e-03 5.249231e-01 -2.462255e-02) (0.000000e+00 0.000000e+00 0.000000e+00)) ((1.843013e+01 -3.901170e+01 2.287993e+02) (-7.197288e-01 2.434866e-01 5.296999e+00) (0.000000e+00 0.000000e+00 0.000000e+00))
0.0001675     	((-1.705319e+00 2.119404e+01 3.855435e+00) (-5.007510e-03 5.252648e-01 -2.497865e-02) (0.000000e+00 0.000000e+00 0.000000e+00)) ((1.856113e+01 -3.915560e+01 2.288359e+02) (-7.240241e-01 2.476707e-01 5.294399e+00) (0.000000e+00 0.000000e+00 0.000000e+00))
0.00017       	((-1.702855e+00 2.121293e+01 3.864913e+00) (-4.928359e-03 5.251624e-01 -2.525416e-02) (0.000000e+00 0.000000e+00 0.000000e+00)) ((1.862731e+01 -3.924771e+01 2.289904e+02) (-7.270188e-01 2.505218e-01 5.292572e+00) (0.000000e+00 0.000000e+00 0.000000e+00))
0.0001725     	((-1.697869e+00 2.123991e+01 3.875381e+00) (-5.231933e-03 5.244573e-01 -2.538081e-02) (0.000000e+00 0.000000e+00 0.000000e+00)) ((1.869513e+01 -3.934632e+01 2.291996e+02) (-7.278752e-01 2.514437e-01 5.288582e+00) (0.000000e+00 0.000000e+00 0.000000e+00))
0.000175      	((-1.689450e+00 2.126527e+01 3.883473e+00) (-4.966061e-03 5.247853e-01 -2.560814e-02) (0.000000e+00 0.000000e+00 0.000000e+00)) ((1.874095e+01 -3.941642e+01 2.293591e+02) (-7.308405e-01 2.540322e-01 5.289188e+00) (0.000000e+00 0.000000e+00 0.000000e+00))
0.0001775     	((-1.690710e+00 2.129017e+01 3.886916e+00) (-4.931456e-03 5.246774e-01 -2.576948e-02) (0.000000e+00 0.000000e+00 0.000000e+00)) ((1.874059e+01 -3.944830e+01 2.296127e+02) (-7.326856e-01 2.556798e-01 5.287790e+00) (0.000000e+00 0.000000e+00 0.000000e+00))
0.00018       	((-1.692632e+00 2.131492e+01 3.887824e+00) (-5.096465e-03 5.246186e-01 -2.588429e-02) (0.000000e+00 0.000000e+00 0.000000e+00)) ((1.871546e+01 -3.945393e+01 2.298733e+02) (-7.340881e-01 2.566887e-01 5.288856e+00) (0.000000e+00 0.000000e+00 0.000000e+00))
0.0001825     	((-1.699383e+00 2.133684e+01 3.886858e+00) (-5.128110e-03 5.245503e-01 -2.595059e-02) (0.000000e+00 0.000000e+00 0.000000e+00)) ((1.867501e+01 -3.944393e+01 2.301558e+02) (-7.349972e-01 2.573415e-01 5.288534e+00) (0.000000e+00 0.000000e+00 0.000000e+00))
0.000185      	((-1.705410e+00 2.135769e+01 3.885822e+00) (-5.519527e-03 5.244323e-01 -2.595850e-02) (0.000000e+00 0.000000e+00 0.000000e+00)) ((1.863583e+01 -3.943145e+01 2.304218e+02) (-7.352350e-01 2.570593e-01 5.291288e+00) (0.000000e+00 0.000000e+00 0.000000e+00))
0.0001875     	((-1.719143e+00 2.137140e+01 3.882917e+00) (-5.510393e-03 5.245961e-01 -2.596919e-02) (0.000000e+00 0.000000e+00 0.000000e+00)) ((1.858584e+01 -3.940706e+01 2.306960e+02) (-7.358070e-01 2.572130e-01 5.292889e+00) (0.000000e+00 0.000000e+00 0.000000e+00))
0.00019       	((-1.734088e+00 2.138412e+01 3.879163e+00) (-6.360830e-03 5.239774e-01 -2.578927e-02) (0.000000e+00 0.000000e+00 0.000000e+00)) ((1.852907e+01 -3.937516e+01 2.309738e+02) (-7.335711e-01 2.545704e-01 5.295246e+00) (0.000000e+00 0.000000e+00 0.000000e+00))
0.0001925     	((-1.749404e+00 2.139045e+01 3.874974e+00) (-6.008804e-03 5.246547e-01 -2.574544e-02) (0.000000e+00 0.000000e+00 0.000000e+00)) ((1.847509e+01 -3.933857e+01 2.311927e+02) (-7.341002e-01 2.545716e-01 5.298575e+00) (0.000000e+00 0.000000e+00 0.000000e+00))
0.000195      	((-1.775734e+00 2.138992e+01 3.862067e+00) (-6.214405e-03 5.248807e-01 -2.561723e-02) (0.000000e+00 0.000000e+00 0.000000e+00)) ((1.834062e+01 -3.922633e+01 2.314562e+02) (-7.332486e-01 2.531650e-01 5.302944e+00) (0.000000e+00 0.000000e+00 0.000000e+00))
0.0001975     	((-1.795595e+00 2.139199e+01 3.849025e+00) (-6.535110e-03 5.247163e-01 -2.537508e-02) (0.000000e+00 0.000000e+00 0.000000e+00)) ((1.820250e+01 -3.910607e+01 2.316804e+02) (-7.308186e-01 2.504560e-01 5.304597e+00) (0.000000e+00 0.000000e+00 0.000000e+00))
0.0002        	((-1.807439e+00 2.138817e+01 3.832113e+00) (-6.613527e-03 5.250553e-01 -2.518445e-02) (0.000000e+00 0.000000e+00 0.000000e+00)) ((1.803189e+01 -3.893959e+01 2.317659e+02) (-7.294181e-01 2.485626e-01 5.308827e+00) (0.000000e+00 0.000000e+00 0.000000e+00))
0.0002025     	((-1.813122e+00 2.138398e+01 3.813707e+00) (-7.014597e-03 5.247679e-01 -2.489474e-02) (0.000000e+00 0.000000e+00 0.000000e+00)) ((1.784706e+01 -3.875252e+01 2.317851e+02) (-7.263371e-01 2.452870e-01 5.310058e+00) (0.000000e+00 0.000000e+00 0.000000e+00))
0.000205      	((-1.814578e+00 2.137070e+01 3.789612e+00) (-6.959416e-03 5.252571e-01 -2.470689e-02) (0.000000e+00 0.000000e+00 0.000000e+00)) ((1.761455e+01 -3.850545e+01 2.316716e+02) (-7.250763e-01 2.435623e-01 5.314451e+00) (0.000000e+00 0.000000e+00 0.000000e+00))
0.0002075     	((-1.817070e+00 2.135409e+01 3.760528e+00) (-7.043812e-03 5.253337e-01 -2.444602e-02) (0.000000e+00 0.000000e+00 0.000000e+00)) ((1.733558e+01 -3.821102e+01 2.315346e+02) (-7.226291e-01 2.409122e-01 5.316149e+00) (0.000000e+00 0.000000e+00 0.000000e+00))
0.00021       	((-1.814712e+00 2.133370e+01 3.726429e+00) (-7.172326e-03 5.255553e-01 -2.418165e-02) (0.000000e+00 0.000000e+00 0.000000e+00)) ((1.701040e+01 -3.786352e+01 2.313106e+02) (-7.202595e-01 2.382062e-01 5.319699e+00) (0.000000e+00 0.000000e+00 0.000000e+00))
0.0002125     	((-1.803715e+00 2.131542e+01 3.692491e+00) (-7.349431e-03 5.254485e-01 -2.386521e-02) (0.000000e+00 0.000000e+00 0.000000e+00)) ((1.668546e+01 -3.751057e+01 2.310187e+02) (-7.170112e-01 2.348829e-01 5.320483e+00) (0.000000e+00 0.000000e+00 0.000000e+00))
0.000215      	((-1.789545e+00 2.129329e+01 3.654490e+00) (-7.326108e-03 5.257480e-01 -2.358435e-02) (0.000000e+00 0.000000e+00 0.000000e+00)) ((1.632437e+01 -3.711590e+01 2.306560e+02) (-7.145138e-01 2.321546e-01 5.323281e+00) (0.000000e+00 0.000000e+00 0.000000e+00))
0.0002175     	((-1.771763e+00 2.127468e+01 3.616951e+00) (-7.811993e-03 5.251250e-01 -2.320773e-02) (0.000000e+00 0.000000e+00 0.000000e+00)) ((1.596551e+01 -3.672392e+01 2.302901e+02) (-7.100556e-01 2.278709e-01 5.321970e+00) (0.000000e+00 0.000000e+00 0.000000e+00))
0.00022       	((-1.750346e+00 2.125206e+01 3.578194e+00) (-7.432054e-03 5.258203e-01 -2.302027e-02) (0.000000e+00 0.000000e+00 0.000000e+00)) ((1.559973e+01 -3.631772e+01 2.298471e+02) (-7.088726e-01 2.264407e-01 5.325141e+00) (0.000000e+00 0.000000e+00 0.000000e+00))
0.0002225     	((-1.739724e+00 2.122735e+01 3.535129e+00) (-7.309327e-03 5.258591e-01 -2.281036e-02) (0.000000e+00 0.000000e+00 0.000000e+00)) ((1.519374e+01 -3.588093e+01 2.294916e+02) (-7.067660e-01 2.244667e-01 5.324332e+00) (0.000000e+00 0.000000e+00 0.000000e+00))
0.000225      	((-1.720758e+00 2.120787e+01 3.494591e+00) (-7.876267e-03 5.252284e-01 -2.252470e-02) (0.000000e+00 0.000000e+00 0.000000e+00)) ((1.480910e+01 -3.546215e+01 2.291027e+02) (-7.031174e-01 2.209967e-01 5.323692e+00) (0.000000e+00 0.000000e+00 0.000000e+00))
0.0002275     	((-1.694710e+00 2.118710e+01 3.458450e+00) (-7.309286e-03 5.257366e-01 -2.241688e-02) (0.000000e+00 0.000000e+00 0.000000e+00)) ((1.447112e+01 -3.508059e+01 2.286288e+02) (-7.025092e-01 2.205074e-01 5.323114e+00) (0.000000e+00 0.000000e+00 0.000000e+00))
0.00023       	((-1.683651e+00 2.116163e+01 3.416287e+00) (-7.143755e-03 5.259331e-01 -2.232881e-02) (0.000000e+00 0.000000e+00 0.000000e+00)) ((1.407804e+01 -3.465502e+01 2.282599e+02) (-7.017144e-01 2.197967e-01 5.323400e+00) (0.000000e+00 0.000000e+00 0.000000e+00))
0.0002325     	((-1.671942e+00 2.114227e+01 3.377830e+00) (-7.032956e-03 5.257803e-01 -2.220907e-02) (0.000000e+00 0.000000e+00 0.000000e+00)) ((1.371656e+01 -3.426620e+01 2.279445e+02) (-7.002434e-01 2.186780e-01 5.320759e+00) (0.000000e+00 0.000000e+00 0.000000e+00))
0.000235      	((-1.657814e+00 2.112370e+01 3.342714e+00) (-6.893019e-03 5.258623e-01 -2.214540e-02) (0.000000e+00 0.000000e+00 0.000000e+00)) ((1.338854e+01 -3.390836e+01 2.276129e+02) (-6.995418e-01 2.181697e-01 5.320140e+00) (0.000000e+00 0.000000e+00 0.000000e+00))
0.0002375     	((-1.640143e+00 2.110931e+01 3.315240e+00) (-6.991876e-03 5.254098e-01 -2.206003e-02) (0.000000e+00 0.000000e+00 0.000000e+00)) ((1.313350e+01 -3.362308e+01 2.272866e+02) (-6.980730e-01 2.171586e-01 5.316597e+00) (0.000000e+00 0.000000e+00 0.000000e+00))
0.00024       	((-1.628640e+00 2.109106e+01 3.290354e+00) (-6.652497e-03 5.256848e-01 -2.205763e-02) (0.000000e+00 0.000000e+00 0.000000e+00)) ((1.290881e+01 -3.336962e+01 2.269848e+02) (-6.981852e-01 2.174737e-01 5.315916e+00) (0.000000e+00 0.000000e+00 0.000000e+00))
0.0002425     	((-1.629337e+00 2.107417e+01 3.268923e+00) (-6.585302e-03 5.255193e-01 -2.203676e-02) (0.000000e+00 0.000000e+00 0.000000e+00)) ((1.271730e+01 -3.316271e+01 2.268202e+02) (-6.976661e-01 2.172912e-01 5.313583e+00) (0.000000e+00 0.000000e+00 0.000000e+00))
0.000245      	((-1.638219e+00 2.105627e+01 3.250202e+00) (-6.469078e-03 5.256601e-01 -2.205728e-02) (0.000000e+00 0.000000e+00 0.000000e+00)) ((1.255405e+01 -3.299059e+01 2.267292e+02) (-6.978641e-01 2.175964e-01 5.313789e+00) (0.000000e+00 0.000000e+00 0.000000e+00))
0.0002475     	((-1.646504e+00 2.104401e+01 3.239620e+00) (-6.829417e-03 5.249832e-01 -2.202282e-02) (0.000000e+00 0.000000e+00 0.000000e+00)) ((1.246661e+01 -3.289838e+01 2.266884e+02) (-6.966646e-01 2.168088e-01 5.310619e+00) (0.000000e+00 0.000000e+00 0.000000e+00))
0.00025       	((-1.655643e+00 2.103050e+01 3.233954e+00) (-6.430034e-03 5.254804e-01 -2.211374e-02) (0.000000e+00 0.000000e+00 0.000000e+00)) ((1.242984e+01 -3.285522e+01 2.266446e+02) (-6.979631e-01 2.181259e-01 5.311560e+00) (0.000000e+00 0.000000e+00 0.000000e+00))
0.0002525     	((-1.676782e+00 2.101676e+01 3.229973e+00) (-6.342569e-03 5.253741e-01 -2.216672e-02) (0.000000e+00 0.000000e+00 0.000000e+00)) ((1.240963e+01 -3.284033e+01 2.267200e+02) (-6.982650e-01 2.187039e-01 5.309625e+00) (0.000000e+00 0.000000e+00 0.000000e+00))
0.000255      	((-1.695875e+00 2.100688e+01 3.231914e+00) (-6.513728e-03 5.252307e-01 -2.216806e-02) (0.000000e+00 0.000000e+00 0.000000e+00)) ((1.244495e+01 -3.288166e+01 2.268135e+02) (-6.979700e-01 2.185101e-01 5.309881e+00) (0.000000e+00 0.000000e+00 0.000000e+00))
0.0002575     	((-1.716847e+00 2.099514e+01 3.238569e+00) (-6.375786e-03 5.252140e-01 -2.221132e-02) (0.000000e+00 0.000000e+00 0.000000e+00)) ((1.252902e+01 -3.297091e+01 2.269078e+02) (-6.982760e-01 2.190549e-01 5.308342e+00) (0.000000e+00 0.000000e+00 0.000000e+00))
0.00026       	((-1.733339e+00 2.098834e+01 3.251035e+00) (-6.888703e-03 5.246633e-01 -2.213076e-02) (0.000000e+00 0.000000e+00 0.000000e+00)) ((1.266629e+01 -3.311303e+01 2.270060e+02) (-6.967267e-01 2.176791e-01 5.307953e+00) (0.000000e+00 0.000000e+00 0.000000e+00))
0.0002625     	((-1.748246e+00 2.097850e+01 3.267864e+00) (-6.548323e-03 5.249988e-01 -2.220513e-02) (0.000000e+00 0.000000e+00 0.000000e+00)) ((1.284994e+01 -3.329619e+01 2.270581e+02) (-6.977331e-01 2.187660e-01 5.307925e+00) (0.000000e+00 0.000000e+00 0.000000e+00))
0.000265      	((-1.770290e+00 2.096760e+01 3.282496e+00) (-6.642074e-03 5.250706e-01 -2.220929e-02) (0.000000e+00 0.000000e+00 0.000000e+00)) ((1.301201e+01 -3.346445e+01 2.271721e+02) (-6.977088e-01 2.187056e-01 5.309580e+00) (0.000000e+00 0.000000e+00 0.000000e+00))
0.0002675     	((-1.786303e+00 2.096038e+01 3.300812e+00) (-6.812726e-03 5.248364e-01 -2.218017e-02) (0.000000e+00 0.000000e+00 0.000000e+00)) ((1.320662e+01 -3.366297e+01 2.272615e+02) (-6.970559e-01 2.182092e-01 5.308982e+00) (0.000000e+00 0.000000e+00 0.000000e+00))
0.00027       	((-1.797867e+00 2.095283e+01 3.319116e+00) (-6.852667e-03 5.249771e-01 -2.214726e-02) (0.000000e+00 0.000000e+00 0.000000e+00)) ((1.340094e+01 -3.385669e+01 2.273027e+02) (-6.967331e-01 2.178429e-01 5.310793e+00) (0.000000e+00 0.000000e+00 0.000000e+00))
0.0002725     	((-1.800806e+00 2.095130e+01 3.341235e+00) (-7.358604e-03 5.243118e-01 -2.201359e-02) (0.000000e+00 0.000000e+00 0.000000e+00)) ((1.362672e+01 -3.407979e+01 2.273158e+02) (-6.945644e-01 2.159398e-01 5.309244e+00) (0.000000e+00 0.000000e+00 0.000000e+00))
0.000275      	((-1.797648e+00 2.094816e+01 3.363399e+00) (-7.134136e-03 5.248271e-01 -2.198927e-02) (0.000000e+00 0.000000e+00 0.000000e+00)) ((1.385414e+01 -3.429722e+01 2.272513e+02) (-6.947394e-01 2.159519e-01 5.312164e+00) (0.000000e+00 0.000000e+00 0.000000e+00))