# Forces      
# CofR        : (0.000000e+00 0.000000e+00 0.000000e+00)
# Time        forces(pressure viscous porous)	moments(pressure viscous porous)
2.5e-06       	((1.300604e+00 1.133381e+01 6.560883e-02) (5.424815e-03 3.977868e-01 6.569326e-03) (0.000000e+00 0.000000e+00 0.000000e+00)) ((-9.261014e+00 4.528083e-01 1.001143e+02) (-3.116047e-01 -6.009103e-02 3.916224e+00) (0.000000e+00 0.000000e+00 0.000000e+00))
5e-06         	((4.783676e+00 4.956241e+01 -1.600931e+00) (6.002846e-03 5.102460e-01 2.827527e-05) (0.000000e+00 0.000000e+00 0.000000e+00)) ((-5.840318e+01 1.959739e+01 4.465881e+02) (-4.412136e-01 4.711253e-03 5.031938e+00) (0.000000e+00 0.000000e+00 0.000000e+00))
7.5e-06       	((1.287645e+00 9.075749e+01 6.346468e-01) (8.069936e-03 4.678116e-01 -4.904959e-03) (0.000000e+00 0.000000e+00 0.000000e+00)) ((-7.624190e+01 -5.520593e+00 8.939918e+02) (-4.473982e-01 5.499441e-02 4.587716e+00) (0.000000e+00 0.000000e+00 0.000000e+00))
1e-05         	((1.419598e+00 5.811364e+01 -4.283105e+00) (6.949211e-03 4.042864e-01 -2.058425e-02) (0.000000e+00 0.000000e+00 0.000000e+00)) ((-9.158999e+01 4.407464e+01 5.665252e+02) (-5.461665e-01 2.084139e-01 3.964987e+00) (0.000000e+00 0.000000e+00 0.000000e+00))
1.25e-05      	((3.416794e+00 1.724510e+01 -7.696317e+00) (-5.276433e-03 4.088302e-01 7.614460e-03) (0.000000e+00 0.000000e+00 0.000000e+00)) ((-8.724035e+01 8.001821e+01 1.374715e+02) (-2.822693e-01 -8.555849e-02 4.131004e+00) (0.000000e+00 0.000000e+00 0.000000e+00))
1.5e-05       	((1.235171e+00 5.685051e+00 -3.604609e+00) (-7.194434e-03 4.079992e-01 1.813755e-02) (0.000000e+00 0.000000e+00 0.000000e+00)) ((-3.801174e+01 3.713169e+01 4.396557e+01) (-1.856117e-01 -1.916057e-01 4.144218e+00) (0.000000e+00 0.000000e+00 0.000000e+00))
1.75e-05      	((-5.073545e-01 1.017291e+01 1.652145e+00) (-1.537098e-03 3.707179e-01 1.387036e-02) (0.000000e+00 0.000000e+00 0.000000e+00)) ((8.320157e+00 -1.679631e+01 1.067793e+02) (-1.878432e-01 -1.410133e-01 3.718184e+00) (0.000000e+00 0.000000e+00 0.000000e+00))
2e-05         	((-8.498444e-01 1.521297e+01 3.670045e+00) (-1.912781e-03 3.470957e-01 7.790630e-03) (0.000000e+00 0.000000e+00 0.000000e+00)) ((2.293277e+01 -3.708755e+01 1.607900e+02) (-2.240885e-01 -8.045818e-02 3.486774e+00) (0.000000e+00 0.000000e+00 0.000000e+00))
2.25e-05      	((-5.283767e-01 1.453603e+01 2.245739e+00) (-1.187263e-03 3.186054e-01 -2.730533e-03) (0.000000e+00 0.000000e+00 0.000000e+00)) ((9.391071e+00 -2.251025e+01 1.507641e+02) (-2.969594e-01 2.540967e-02 3.195698e+00) (0.000000e+00 0.000000e+00 0.000000e+00))
2.5e-05       	((5.524906e-03 9.697081e+00 -5.568240e-01) (-7.001390e-04 3.115315e-01 -7.933023e-03) (0.000000e+00 0.000000e+00 0.000000e+00)) ((-1.348727e+01 5.949253e+00 9.707320e+01) (-3.408490e-01 7.721486e-02 3.120355e+00) (0.000000e+00 0.000000e+00 0.000000e+00))
2.75e-05      	((7.330928e-02 5.950934e+00 -1.874206e+00) (-3.292217e-03 3.146251e-01 -6.693927e-03) (0.000000e+00 0.000000e+00 0.000000e+00)) ((-2.271560e+01 1.911258e+01 5.896911e+01) (-3.344454e-01 6.148113e-02 3.176073e+00) (0.000000e+00 0.000000e+00 0.000000e+00))
3e-05         	((-1.486374e-01 5.953268e+00 -1.201060e+00) (-3.792181e-03 3.107723e-01 -4.740153e-03) (0.000000e+00 0.000000e+00 0.000000e+00)) ((-1.596029e+01 1.216271e+01 6.118583e+01) (-3.112280e-01 4.149206e-02 3.142664e+00) (0.000000e+00 0.000000e+00 0.000000e+00))
3.25e-05      	((-4.311586e-01 8.201320e+00 2.346711e-01) (-5.649537e-03 3.106812e-01 -5.035309e-04) (0.000000e+00 0.000000e+00 0.000000e+00)) ((-3.950192e+00 -2.420431e+00 8.642262e+01) (-2.699953e-01 -2.646877e-03 3.159899e+00) (0.000000e+00 0.000000e+00 0.000000e+00))
3.5e-05       	((-6.592024e-01 9.950530e+00 1.068669e+00) (-5.441737e-03 3.089087e-01 1.141313e-03) (0.000000e+00 0.000000e+00 0.000000e+00)) ((2.466292e+00 -1.095052e+01 1.061351e+02) (-2.519825e-01 -1.857015e-02 3.140075e+00) (0.000000e+00 0.000000e+00 0.000000e+00))
3.75e-05      	((-7.525408e-01 9.849453e+00 8.844639e-01) (-4.365800e-03 3.055183e-01 8.031636e-04) (0.000000e+00 0.000000e+00 0.000000e+00)) ((5.739173e-01 -9.201475e+00 1.060492e+02) (-2.521250e-01 -1.387753e-02 3.095495e+00) (0.000000e+00 0.000000e+00 0.000000e+00))
4e-05         	((-6.930939e-01 8.499582e+00 1.768389e-01) (-3.121419e-03 3.000429e-01 -3.684727e-04) (0.000000e+00 0.000000e+00 0.000000e+00)) ((-5.195436e+00 -2.077940e+00 9.199006e+01) (-2.586157e-01 -7.138373e-04 3.028475e+00) (0.000000e+00 0.000000e+00 0.000000e+00))
4.25e-05      	((-5.440758e-01 7.372348e+00 -2.530367e-01) (-2.425461e-03 2.939243e-01 -1.331710e-03) (0.000000e+00 0.000000e+00 0.000000e+00)) ((-8.332638e+00 2.373427e+00 7.925187e+01) (-2.626009e-01 9.651327e-03 2.960486e+00) (0.000000e+00 0.000000e+00 0.000000e+00))
4.5e-05       	((-3.861055e-01 7.214596e+00 -1.622371e-01) (-2.458427e-03 2.890573e-01 -1.570992e-03) (0.000000e+00 0.000000e+00 0.000000e+00)) ((-7.218245e+00 1.644700e+00 7.608217e+01) (-2.606969e-01 1.198152e-02 2.912269e+00) (0.000000e+00 0.000000e+00 0.000000e+00))
4.75e-05      	((-2.987969e-01 7.756390e+00 2.074122e-01) (-2.694172e-03 2.864745e-01 -1.218231e-03) (0.000000e+00 0.000000e+00 0.000000e+00)) ((-4.056327e+00 -1.941309e+00 8.058984e+01) (-2.551162e-01 8.149023e-03 2.888867e+00) (0.000000e+00 0.000000e+00 0.000000e+00))
5e-05         	((-2.978614e-01 8.305619e+00 5.012836e-01) (-2.965100e-03 2.858983e-01 -5.620200e-04) (0.000000e+00 0.000000e+00 0.000000e+00)) ((-1.711808e+00 -4.872556e+00 8.603848e+01) (-2.484933e-01 1.281674e-03 2.885795e+00) (0.000000e+00 0.000000e+00 0.000000e+00))
5.25e-05      	((-3.452761e-01 8.427479e+00 5.560192e-01) (-3.164204e-03 2.859696e-01 1.303614e-05) (0.000000e+00 0.000000e+00 0.000000e+00)) ((-1.352795e+00 -5.479759e+00 8.771294e+01) (-2.432961e-01 -4.687139e-03 2.888494e+00) (0.000000e+00 0.000000e+00 0.000000e+00))
5.5e-05       	((-3.716134e-01 8.206819e+00 4.525194e-01) (-3.365109e-03 2.856282e-01 4.020403e-04) (0.000000e+00 0.000000e+00 0.000000e+00)) ((-2.213933e+00 -4.493026e+00 8.576093e+01) (-2.394841e-01 -8.778436e-03 2.887111e+00) (0.000000e+00 0.000000e+00 0.000000e+00))
5.75e-05      	((-3.572129e-01 7.911283e+00 3.371020e-01) (-3.493805e-03 2.847063e-01 5.579627e-04) (0.000000e+00 0.000000e+00 0.000000e+00)) ((-3.087886e+00 -3.339686e+00 8.265117e+01) (-2.374209e-01 -1.048245e-02 2.879244e+00) (0.000000e+00 0.000000e+00 0.000000e+00))
6e-05         	((-3.052505e-01 7.754801e+00 3.027480e-01) (-3.635677e-03 2.833692e-01 6.239447e-04) (0.000000e+00 0.000000e+00 0.000000e+00)) ((-3.269195e+00 -2.946432e+00 8.055074e+01) (-2.358659e-01 -1.128988e-02 2.867378e+00) (0.000000e+00 0.000000e+00 0.000000e+00))
6.25e-05      	((-2.483275e-01 7.763036e+00 3.490807e-01) (-3.713229e-03 2.820352e-01 6.593574e-04) (0.000000e+00 0.000000e+00 0.000000e+00)) ((-2.806921e+00 -3.342051e+00 8.004622e+01) (-2.346075e-01 -1.173390e-02 2.854925e+00) (0.000000e+00 0.000000e+00 0.000000e+00))
6.5e-05       	((-2.011337e-01 7.861374e+00 4.268218e-01) (-3.775846e-03 2.808606e-01 6.982844e-04) (0.000000e+00 0.000000e+00 0.000000e+00)) ((-2.128950e+00 -4.057308e+00 8.054182e+01) (-2.334462e-01 -1.219750e-02 2.843892e+00) (0.000000e+00 0.000000e+00 0.000000e+00))
6.75e-05      	((-1.717375e-01 7.959584e+00 4.896259e-01) (-3.778942e-03 2.800055e-01 7.106840e-04) (0.000000e+00 0.000000e+00 0.000000e+00)) ((-1.612868e+00 -4.641714e+00 8.121766e+01) (-2.327829e-01 -1.233720e-02 2.835441e+00) (0.000000e+00 0.000000e+00 0.000000e+00))
7e-05         	((-1.572642e-01 8.000694e+00 5.189505e-01) (-3.771282e-03 2.792600e-01 6.964336e-04) (0.000000e+00 0.000000e+00 0.000000e+00)) ((-1.380681e+00 -4.911080e+00 8.147690e+01) (-2.325069e-01 -1.219291e-02 2.827953e+00) (0.000000e+00 0.000000e+00 0.000000e+00))
7.25e-05      	((-1.547109e-01 7.977679e+00 5.265444e-01) (-3.765851e-03 2.785011e-01 6.588373e-04) (0.000000e+00 0.000000e+00 0.000000e+00)) ((-1.301163e+00 -4.977406e+00 8.121816e+01) (-2.324630e-01 -1.181098e-02 2.820344e+00) (0.000000e+00 0.000000e+00 0.000000e+00))
7.5e-05       	((-1.512799e-01 7.925585e+00 5.324073e-01) (-3.737924e-03 2.777760e-01 5.628024e-04) (0.000000e+00 0.000000e+00 0.000000e+00)) ((-1.202938e+00 -5.027430e+00 8.066153e+01) (-2.330670e-01 -1.081213e-02 2.812843e+00) (0.000000e+00 0.000000e+00 0.000000e+00))
7.75e-05      	((-1.411552e-01 7.883796e+00 5.499599e-01) (-3.653126e-03 2.770719e-01 4.483932e-04) (0.000000e+00 0.000000e+00 0.000000e+00)) ((-9.918239e-01 -5.187106e+00 8.013941e+01) (-2.338922e-01 -9.578079e-03 2.804983e+00) (0.000000e+00 0.000000e+00 0.000000e+00))
8e-05         	((-1.217134e-01 7.875804e+00 5.776859e-01) (-3.566196e-03 2.763058e-01 3.228478e-04) (0.000000e+00 0.000000e+00 0.000000e+00)) ((-7.083386e-01 -5.440093e+00 7.985937e+01) (-2.347957e-01 -8.219328e-03 2.796453e+00) (0.000000e+00 0.000000e+00 0.000000e+00))
8.25e-05      	((-1.008088e-01 7.898917e+00 6.112452e-01) (-3.438448e-03 2.755646e-01 1.818846e-04) (0.000000e+00 0.000000e+00 0.000000e+00)) ((-3.966046e-01 -5.750462e+00 7.987305e+01) (-2.358626e-01 -6.673623e-03 2.787749e+00) (0.000000e+00 0.000000e+00 0.000000e+00))
8.5e-05       	((-8.226532e-02 7.937793e+00 6.467183e-01) (-3.321204e-03 2.748557e-01 4.061183e-05) (0.000000e+00 0.000000e+00 0.000000e+00)) ((-8.113389e-02 -6.085551e+00 8.006759e+01) (-2.369529e-01 -5.132360e-03 2.779445e+00) (0.000000e+00 0.000000e+00 0.000000e+00))
8.75e-05      	((-7.274499e-02 7.974802e+00 6.842960e-01) (-3.172438e-03 2.742145e-01 -1.217968e-04) (0.000000e+00 0.000000e+00 0.000000e+00)) ((2.569460e-01 -6.453557e+00 8.033454e+01) (-2.383161e-01 -3.364911e-03 2.771490e+00) (0.000000e+00 0.000000e+00 0.000000e+00))
9e-05         	((-7.125068e-02 8.002191e+00 7.221200e-01) (-3.025524e-03 2.736026e-01 -2.800048e-04) (0.000000e+00 0.000000e+00 0.000000e+00)) ((6.075945e-01 -6.835054e+00 8.058761e+01) (-2.396549e-01 -1.650548e-03 2.763826e+00) (0.000000e+00 0.000000e+00 0.000000e+00))
9.25e-05      	((-7.823970e-02 8.017571e+00 7.598251e-01) (-2.870849e-03 2.730342e-01 -4.270698e-04) (0.000000e+00 0.000000e+00 0.000000e+00)) ((9.693060e-01 -7.224614e+00 8.080726e+01) (-2.409145e-01 -5.499063e-05 2.756520e+00) (0.000000e+00 0.000000e+00 0.000000e+00))
9.5e-05       	((-9.114511e-02 8.024507e+00 7.957118e-01) (-2.747527e-03 2.724651e-01 -5.756063e-04) (0.000000e+00 0.000000e+00 0.000000e+00)) ((1.321972e+00 -7.602033e+00 8.100377e+01) (-2.421790e-01 1.524923e-03 2.749516e+00) (0.000000e+00 0.000000e+00 0.000000e+00))
9.75e-05      	((-1.100006e-01 8.026935e+00 8.308663e-01) (-2.646596e-03 2.719160e-01 -7.179731e-04) (0.000000e+00 0.000000e+00 0.000000e+00)) ((1.672267e+00 -7.976746e+00 8.121643e+01) (-2.433930e-01 3.019889e-03 2.742950e+00) (0.000000e+00 0.000000e+00 0.000000e+00))
0.0001        	((-1.333043e-01 8.030286e+00 8.658250e-01) (-2.593084e-03 2.713975e-01 -8.550233e-04) (0.000000e+00 0.000000e+00 0.000000e+00)) ((2.020568e+00 -8.352404e+00 8.148459e+01) (-2.445694e-01 4.423189e-03 2.737177e+00) (0.000000e+00 0.000000e+00 0.000000e+00))
0.0001025     	((-1.615968e-01 8.037257e+00 9.012258e-01) (-2.580007e-03 2.709346e-01 -9.930427e-04) (0.000000e+00 0.000000e+00 0.000000e+00)) ((2.369944e+00 -8.734959e+00 8.184058e+01) (-2.457946e-01 5.800546e-03 2.732384e+00) (0.000000e+00 0.000000e+00 0.000000e+00))
0.000105      	((-1.930717e-01 8.048189e+00 9.353794e-01) (-2.627729e-03 2.705204e-01 -1.132663e-03) (0.000000e+00 0.000000e+00 0.000000e+00)) ((2.702999e+00 -9.106073e+00 8.226982e+01) (-2.470720e-01 7.144791e-03 2.728701e+00) (0.000000e+00 0.000000e+00 0.000000e+00))
0.0001075     	((-2.274056e-01 8.060562e+00 9.668917e-01) (-2.703372e-03 2.701791e-01 -1.279773e-03) (0.000000e+00 0.000000e+00 0.000000e+00)) ((3.007478e+00 -9.451217e+00 8.274301e+01) (-2.484762e-01 8.539521e-03 2.726051e+00) (0.000000e+00 0.000000e+00 0.000000e+00))
0.00011       	((-2.606592e-01 8.072749e+00 9.932993e-01) (-2.828388e-03 2.698851e-01 -1.418331e-03) (0.000000e+00 0.000000e+00 0.000000e+00)) ((3.260103e+00 -9.743018e+00 8.320398e+01) (-2.498301e-01 9.811385e-03 2.724379e+00) (0.000000e+00 0.000000e+00 0.000000e+00))
0.0001125     	((-2.917647e-01 8.083356e+00 1.013653e+00) (-2.974510e-03 2.696837e-01 -1.560927e-03) (0.000000e+00 0.000000e+00 0.000000e+00)) ((3.452253e+00 -9.971006e+00 8.362690e+01) (-2.512995e-01 1.109980e-02 2.723859e+00) (0.000000e+00 0.000000e+00 0.000000e+00))
0.000115      	((-3.174567e-01 8.092234e+00 1.028455e+00) (-3.152646e-03 2.695304e-01 -1.686734e-03) (0.000000e+00 0.000000e+00 0.000000e+00)) ((3.589491e+00 -1.013846e+01 8.397753e+01) (-2.526426e-01 1.219572e-02 2.724137e+00) (0.000000e+00 0.000000e+00 0.000000e+00))
0.0001175     	((-3.389097e-01 8.098996e+00 1.040093e+00) (-3.323955e-03 2.694346e-01 -1.800459e-03) (0.000000e+00 0.000000e+00 0.000000e+00)) ((3.696357e+00 -1.027051e+01 8.426301e+01) (-2.539065e-01 1.317246e-02 2.724929e+00) (0.000000e+00 0.000000e+00 0.000000e+00))
0.00012       	((-3.547303e-01 8.104013e+00 1.049565e+00) (-3.512976e-03 2.693396e-01 -1.891044e-03) (0.000000e+00 0.000000e+00 0.000000e+00)) ((3.782862e+00 -1.037705e+01 8.447352e+01) (-2.549337e-01 1.390354e-02 2.725902e+00) (0.000000e+00 0.000000e+00 0.000000e+00))
0.0001225     	((-3.666082e-01 8.107044e+00 1.057207e+00) (-3.684689e-03 2.692747e-01 -1.959062e-03) (0.000000e+00 0.000000e+00 0.000000e+00)) ((3.852294e+00 -1.046294e+01 8.462325e+01) (-2.557481e-01 1.441909e-02 2.727007e+00) (0.000000e+00 0.000000e+00 0.000000e+00))
0.000125      	((-3.737282e-01 8.108580e+00 1.062781e+00) (-3.854762e-03 2.691984e-01 -1.996481e-03) (0.000000e+00 0.000000e+00 0.000000e+00)) ((3.901863e+00 -1.052564e+01 8.470952e+01) (-2.562320e-01 1.462799e-02 2.727974e+00) (0.000000e+00 0.000000e+00 0.000000e+00))
0.0001275     	((-3.775105e-01 8.107846e+00 1.066567e+00) (-4.008834e-03 2.691109e-01 -2.010796e-03) (0.000000e+00 0.000000e+00 0.000000e+00)) ((3.934767e+00 -1.056863e+01 8.473879e+01) (-2.564635e-01 1.461413e-02 2.728670e+00) (0.000000e+00 0.000000e+00 0.000000e+00))
0.00013       	((-3.770897e-01 8.104847e+00 1.068841e+00) (-4.156577e-03 2.690158e-01 -2.003628e-03) (0.000000e+00 0.000000e+00 0.000000e+00)) ((3.954242e+00 -1.059389e+01 8.470298e+01) (-2.564594e-01 1.438800e-02 2.729223e+00) (0.000000e+00 0.000000e+00 0.000000e+00))
0.0001325     	((-3.737856e-01 8.098314e+00 1.070577e+00) (-4.275306e-03 2.688886e-01 -1.984704e-03) (0.000000e+00 0.000000e+00 0.000000e+00)) ((3.971237e+00 -1.061149e+01 8.460255e+01) (-2.563039e-01 1.406418e-02 2.729164e+00) (0.000000e+00 0.000000e+00 0.000000e+00))
0.000135      	((-3.670817e-01 8.088688e+00 1.072339e+00) (-4.381019e-03 2.687408e-01 -1.944376e-03) (0.000000e+00 0.000000e+00 0.000000e+00)) ((3.991731e+00 -1.062662e+01 8.443717e+01) (-2.559020e-01 1.353672e-02 2.728762e+00) (0.000000e+00 0.000000e+00 0.000000e+00))
0.0001375     	((-3.590188e-01 8.075479e+00 1.075180e+00) (-4.449739e-03 2.685529e-01 -1.900053e-03) (0.000000e+00 0.000000e+00 0.000000e+00)) ((4.026722e+00 -1.065089e+01 8.422241e+01) (-2.554196e-01 1.299890e-02 2.727586e+00) (0.000000e+00 0.000000e+00 0.000000e+00))
0.00014       	((-3.493703e-01 8.059932e+00 1.079176e+00) (-4.498696e-03 2.683390e-01 -1.849022e-03) (0.000000e+00 0.000000e+00 0.000000e+00)) ((4.076367e+00 -1.068512e+01 8.396885e+01) (-2.548369e-01 1.241420e-02 2.725944e+00) (0.000000e+00 0.000000e+00 0.000000e+00))
0.0001425     	((-3.398448e-01 8.042448e+00 1.084526e+00) (-4.509667e-03 2.680909e-01 -1.807676e-03) (0.000000e+00 0.000000e+00 0.000000e+00)) ((4.142076e+00 -1.073229e+01 8.369731e+01) (-2.543177e-01 1.195851e-02 2.723577e+00) (0.000000e+00 0.000000e+00 0.000000e+00))
0.000145      	((-3.290529e-01 8.024820e+00 1.090293e+00) (-4.505679e-03 2.678272e-01 -1.764918e-03) (0.000000e+00 0.000000e+00 0.000000e+00)) ((4.212971e+00 -1.078220e+01 8.341199e+01) (-2.537622e-01 1.150709e-02 2.720896e+00) (0.000000e+00 0.000000e+00 0.000000e+00))
0.0001475     	((-3.182998e-01 8.007677e+00 1.096129e+00) (-4.473171e-03 2.675493e-01 -1.733474e-03) (0.000000e+00 0.000000e+00 0.000000e+00)) ((4.284589e+00 -1.083203e+01 8.313175e+01) (-2.533027e-01 1.119455e-02 2.717787e+00) (0.000000e+00 0.000000e+00 0.000000e+00))
0.00015       	((-3.063726e-01 7.992447e+00 1.101561e+00) (-4.444692e-03 2.672658e-01 -1.707925e-03) (0.000000e+00 0.000000e+00 0.000000e+00)) ((4.351067e+00 -1.087652e+01 8.285900e+01) (-2.528896e-01 1.094335e-02 2.714658e+00) (0.000000e+00 0.000000e+00 0.000000e+00))
0.0001525     	((-2.949781e-01 7.978805e+00 1.107175e+00) (-4.397907e-03 2.669754e-01 -1.695109e-03) (0.000000e+00 0.000000e+00 0.000000e+00)) ((4.418360e+00 -1.092275e+01 8.260717e+01) (-2.525934e-01 1.083654e-02 2.711278e+00) (0.000000e+00 0.000000e+00 0.000000e+00))
0.000155      	((-2.832773e-01 7.967397e+00 1.112969e+00) (-4.361938e-03 2.666947e-01 -1.687245e-03) (0.000000e+00 0.000000e+00 0.000000e+00)) ((4.486116e+00 -1.097056e+01 8.237470e+01) (-2.523477e-01 1.077493e-02 2.708101e+00) (0.000000e+00 0.000000e+00 0.000000e+00))
0.0001575     	((-2.726332e-01 7.957839e+00 1.119003e+00) (-4.319868e-03 2.664178e-01 -1.696259e-03) (0.000000e+00 0.000000e+00 0.000000e+00)) ((4.554822e+00 -1.102145e+01 8.217109e+01) (-2.522753e-01 1.088722e-02 2.704906e+00) (0.000000e+00 0.000000e+00 0.000000e+00))
0.00016       	((-2.619705e-01 7.950427e+00 1.125035e+00) (-4.290178e-03 2.661569e-01 -1.717906e-03) (0.000000e+00 0.000000e+00 0.000000e+00)) ((4.621888e+00 -1.107256e+01 8.198892e+01) (-2.523399e-01 1.111854e-02 2.701992e+00) (0.000000e+00 0.000000e+00 0.000000e+00))
0.0001625     	((-2.525642e-01 7.944141e+00 1.131432e+00) (-4.255863e-03 2.659043e-01 -1.761264e-03) (0.000000e+00 0.000000e+00 0.000000e+00)) ((4.691427e+00 -1.112829e+01 8.183053e+01) (-2.526355e-01 1.156952e-02 2.699119e+00) (0.000000e+00 0.000000e+00 0.000000e+00))
0.000165      	((-2.434478e-01 7.939186e+00 1.137807e+00) (-4.231945e-03 2.656766e-01 -1.812816e-03) (0.000000e+00 0.000000e+00 0.000000e+00)) ((4.759496e+00 -1.118434e+01 8.168870e+01) (-2.530350e-01 1.209545e-02 2.696595e+00) (0.000000e+00 0.000000e+00 0.000000e+00))
0.0001675     	((-2.358146e-01 7.934779e+00 1.144309e+00) (-4.203525e-03 2.654611e-01 -1.876645e-03) (0.000000e+00 0.000000e+00 0.000000e+00)) ((4.827834e+00 -1.124275e+01 8.156732e+01) (-2.535744e-01 1.274677e-02 2.694156e+00) (0.000000e+00 0.000000e+00 0.000000e+00))
0.00017       	((-2.283632e-01 7.931475e+00 1.150352e+00) (-4.187072e-03 2.652651e-01 -1.939472e-03) (0.000000e+00 0.000000e+00 0.000000e+00)) ((4.890245e+00 -1.129685e+01 8.145922e+01) (-2.541213e-01 1.338113e-02 2.692028e+00) (0.000000e+00 0.000000e+00 0.000000e+00))
0.0001725     	((-2.223339e-01 7.928826e+00 1.155928e+00) (-4.163780e-03 2.650870e-01 -2.009673e-03) (0.000000e+00 0.000000e+00 0.000000e+00)) ((4.946699e+00 -1.134714e+01 8.137199e+01) (-2.547622e-01 1.409356e-02 2.690017e+00) (0.000000e+00 0.000000e+00 0.000000e+00))
0.000175      	((-2.162444e-01 7.927410e+00 1.160278e+00) (-4.151686e-03 2.649350e-01 -2.077411e-03) (0.000000e+00 0.000000e+00 0.000000e+00)) ((4.989297e+00 -1.138509e+01 8.129692e+01) (-2.554010e-01 1.477541e-02 2.688379e+00) (0.000000e+00 0.000000e+00 0.000000e+00))
0.0001775     	((-2.114405e-01 7.926876e+00 1.163432e+00) (-4.131981e-03 2.648098e-01 -2.147798e-03) (0.000000e+00 0.000000e+00 0.000000e+00)) ((5.018384e+00 -1.141157e+01 8.124351e+01) (-2.560899e-01 1.548964e-02 2.686937e+00) (0.000000e+00 0.000000e+00 0.000000e+00))
0.00018       	((-2.062937e-01 7.927658e+00 1.164961e+00) (-4.126097e-03 2.647022e-01 -2.209408e-03) (0.000000e+00 0.000000e+00 0.000000e+00)) ((5.029618e+00 -1.142135e+01 8.120015e+01) (-2.567032e-01 1.610940e-02 2.685808e+00) (0.000000e+00 0.000000e+00 0.000000e+00))
0.0001825     	((-2.020879e-01 7.929157e+00 1.165190e+00) (-4.107452e-03 2.646248e-01 -2.272023e-03) (0.000000e+00 0.000000e+00 0.000000e+00)) ((5.026644e+00 -1.141832e+01 8.117318e+01) (-2.573502e-01 1.675045e-02 2.684857e+00) (0.000000e+00 0.000000e+00 0.000000e+00))
0.000185      	((-1.972943e-01 7.931533e+00 1.164134e+00) (-4.100088e-03 2.645645e-01 -2.323976e-03) (0.000000e+00 0.000000e+00 0.000000e+00)) ((5.009882e+00 -1.140194e+01 8.114925e+01) (-2.579006e-01 1.727988e-02 2.684186e+00) (0.000000e+00 0.000000e+00 0.000000e+00))
0.0001875     	((-1.933692e-01 7.934076e+00 1.162455e+00) (-4.081724e-03 2.645221e-01 -2.373507e-03) (0.000000e+00 0.000000e+00 0.000000e+00)) ((4.986477e+00 -1.137978e+01 8.113540e+01) (-2.584405e-01 1.779363e-02 2.683588e+00) (0.000000e+00 0.000000e+00 0.000000e+00))
0.00019       	((-1.889470e-01 7.937173e+00 1.160212e+00) (-4.069110e-03 2.644844e-01 -2.409962e-03) (0.000000e+00 0.000000e+00 0.000000e+00)) ((4.957010e+00 -1.135189e+01 8.112220e+01) (-2.588484e-01 1.817445e-02 2.683089e+00) (0.000000e+00 0.000000e+00 0.000000e+00))
0.0001925     	((-1.854176e-01 7.940190e+00 1.157950e+00) (-4.041724e-03 2.644541e-01 -2.444450e-03) (0.000000e+00 0.000000e+00 0.000000e+00)) ((4.927307e+00 -1.132462e+01 8.111685e+01) (-2.592426e-01 1.854614e-02 2.682517e+00) (0.000000e+00 0.000000e+00 0.000000e+00))
0.000195      	((-1.813624e-01 7.943337e+00 1.155606e+00) (-4.020450e-03 2.644103e-01 -2.468484e-03) (0.000000e+00 0.000000e+00 0.000000e+00)) ((4.896836e+00 -1.129667e+01 8.110764e+01) (-2.595189e-01 1.880860e-02 2.681865e+00) (0.000000e+00 0.000000e+00 0.000000e+00))
0.0001975     	((-1.781852e-01 7.945863e+00 1.153794e+00) (-3.985149e-03 2.643676e-01 -2.491862e-03) (0.000000e+00 0.000000e+00 0.000000e+00)) ((4.872239e+00 -1.127503e+01 8.110079e+01) (-2.597901e-01 1.907331e-02 2.681084e+00) (0.000000e+00 0.000000e+00 0.000000e+00))
0.0002        	((-1.747204e-01 7.947995e+00 1.152433e+00) (-3.958683e-03 2.643044e-01 -2.505526e-03) (0.000000e+00 0.000000e+00 0.000000e+00)) ((4.852794e+00 -1.125835e+01 8.108737e+01) (-2.599465e-01 1.923314e-02 2.680180e+00) (0.000000e+00 0.000000e+00 0.000000e+00))
0.0002025     	((-1.725477e-01 7.949203e+00 1.152087e+00) (-3.920962e-03 2.642330e-01 -2.516114e-03) (0.000000e+00 0.000000e+00 0.000000e+00)) ((4.844433e+00 -1.125311e+01 8.107761e+01) (-2.600641e-01 1.936790e-02 2.679084e+00) (0.000000e+00 0.000000e+00 0.000000e+00))
0.000205      	((-1.702987e-01 7.949934e+00 1.152574e+00) (-3.893812e-03 2.641433e-01 -2.513380e-03) (0.000000e+00 0.000000e+00 0.000000e+00)) ((4.845261e+00 -1.125666e+01 8.106274e+01) (-2.600316e-01 1.936146e-02 2.677904e+00) (0.000000e+00 0.000000e+00 0.000000e+00))
0.0002075     	((-1.696890e-01 7.949951e+00 1.154048e+00) (-3.860925e-03 2.640575e-01 -2.514572e-03) (0.000000e+00 0.000000e+00 0.000000e+00)) ((4.856828e+00 -1.127143e+01 8.105717e+01) (-2.600414e-01 1.939558e-02 2.676712e+00) (0.000000e+00 0.000000e+00 0.000000e+00))
0.00021       	((-1.692822e-01 7.949841e+00 1.155933e+00) (-3.844849e-03 2.639575e-01 -2.508824e-03) (0.000000e+00 0.000000e+00 0.000000e+00)) ((4.873059e+00 -1.129076e+01 8.105285e+01) (-2.599703e-01 1.934635e-02 2.675542e+00) (0.000000e+00 0.000000e+00 0.000000e+00))
0.0002125     	((-1.705313e-01 7.949485e+00 1.158274e+00) (-3.821754e-03 2.638715e-01 -2.506028e-03) (0.000000e+00 0.000000e+00 0.000000e+00)) ((4.894309e+00 -1.131574e+01 8.106261e+01) (-2.599377e-01 1.933009e-02 2.674447e+00) (0.000000e+00 0.000000e+00 0.000000e+00))
0.000215      	((-1.718950e-01 7.949361e+00 1.160658e+00) (-3.816116e-03 2.637789e-01 -2.497510e-03) (0.000000e+00 0.000000e+00 0.000000e+00)) ((4.916239e+00 -1.134125e+01 8.107618e+01) (-2.598411e-01 1.924366e-02 2.673458e+00) (0.000000e+00 0.000000e+00 0.000000e+00))
0.0002175     	((-1.746751e-01 7.949113e+00 1.163281e+00) (-3.807378e-03 2.637054e-01 -2.492018e-03) (0.000000e+00 0.000000e+00 0.000000e+00)) ((4.940894e+00 -1.136981e+01 8.110252e+01) (-2.597884e-01 1.918872e-02 2.672636e+00) (0.000000e+00 0.000000e+00 0.000000e+00))
0.00022       	((-1.772265e-01 7.949081e+00 1.165754e+00) (-3.815649e-03 2.636333e-01 -2.482024e-03) (0.000000e+00 0.000000e+00 0.000000e+00)) ((4.964188e+00 -1.139653e+01 8.112888e+01) (-2.596900e-01 1.907731e-02 2.671996e+00) (0.000000e+00 0.000000e+00 0.000000e+00))
0.0002225     	((-1.807037e-01 7.948959e+00 1.168299e+00) (-3.819522e-03 2.635818e-01 -2.474909e-03) (0.000000e+00 0.000000e+00 0.000000e+00)) ((4.988331e+00 -1.142423e+01 8.116324e+01) (-2.596346e-01 1.899812e-02 2.671523e+00) (0.000000e+00 0.000000e+00 0.000000e+00))
0.000225      	((-1.833003e-01 7.949149e+00 1.170618e+00) (-3.836688e-03 2.635262e-01 -2.461109e-03) (0.000000e+00 0.000000e+00 0.000000e+00)) ((5.010111e+00 -1.144890e+01 8.119184e+01) (-2.595074e-01 1.884382e-02 2.671138e+00) (0.000000e+00 0.000000e+00 0.000000e+00))
0.0002275     	((-1.861066e-01 7.949415e+00 1.172989e+00) (-3.844940e-03 2.634920e-01 -2.451941e-03) (0.000000e+00 0.000000e+00 0.000000e+00)) ((5.032270e+00 -1.147395e+01 8.122277e+01) (-2.594424e-01 1.874282e-02 2.670883e+00) (0.000000e+00 0.000000e+00 0.000000e+00))
0.00023       	((-1.874812e-01 7.950151e+00 1.175228e+00) (-3.861946e-03 2.634490e-01 -2.437008e-03) (0.000000e+00 0.000000e+00 0.000000e+00)) ((5.052783e+00 -1.149670e+01 8.124390e+01) (-2.593122e-01 1.857916e-02 2.670621e+00) (0.000000e+00 0.000000e+00 0.000000e+00))
0.0002325     	((-1.886856e-01 7.951050e+00 1.177677e+00) (-3.868395e-03 2.634215e-01 -2.427460e-03) (0.000000e+00 0.000000e+00 0.000000e+00)) ((5.075149e+00 -1.152137e+01 8.126440e+01) (-2.592483e-01 1.847644e-02 2.670412e+00) (0.000000e+00 0.000000e+00 0.000000e+00))
0.000235      	((-1.881882e-01 7.952395e+00 1.180190e+00) (-3.881512e-03 2.633811e-01 -2.412548e-03) (0.000000e+00 0.000000e+00 0.000000e+00)) ((5.097830e+00 -1.154569e+01 8.127223e+01) (-2.591204e-01 1.831659e-02 2.670134e+00) (0.000000e+00 0.000000e+00 0.000000e+00))
0.0002375     	((-1.875395e-01 7.953848e+00 1.183154e+00) (-3.880519e-03 2.633539e-01 -2.400416e-03) (0.000000e+00 0.000000e+00 0.000000e+00)) ((5.124838e+00 -1.157448e+01 8.127918e+01) (-2.590293e-01 1.819454e-02 2.669850e+00) (0.000000e+00 0.000000e+00 0.000000e+00))
0.00024       	((-1.855913e-01 7.955613e+00 1.186273e+00) (-3.890116e-03 2.633106e-01 -2.383842e-03) (0.000000e+00 0.000000e+00 0.000000e+00)) ((5.153187e+00 -1.160422e+01 8.127639e+01) (-2.588817e-01 1.802079e-02 2.669504e+00) (0.000000e+00 0.000000e+00 0.000000e+00))
0.0002425     	((-1.840390e-01 7.957290e+00 1.189800e+00) (-3.885066e-03 2.632815e-01 -2.370176e-03) (0.000000e+00 0.000000e+00 0.000000e+00)) ((5.185599e+00 -1.163840e+01 8.127652e+01) (-2.587725e-01 1.788634e-02 2.669157e+00) (0.000000e+00 0.000000e+00 0.000000e+00))
0.000245      	((-1.817120e-01 7.959015e+00 1.193507e+00) (-3.887953e-03 2.632321e-01 -2.348464e-03) (0.000000e+00 0.000000e+00 0.000000e+00)) ((5.219892e+00 -1.167410e+01 8.126973e+01) (-2.585649e-01 1.766667e-02 2.668682e+00) (0.000000e+00 0.000000e+00 0.000000e+00))
0.0002475     	((-1.802269e-01 7.960430e+00 1.197575e+00) (-3.879768e-03 2.631938e-01 -2.327688e-03) (0.000000e+00 0.000000e+00 0.000000e+00)) ((5.258062e+00 -1.171403e+01 8.126827e+01) (-2.583722e-01 1.746349e-02 2.668212e+00) (0.000000e+00 0.000000e+00 0.000000e+00))
0.00025       	((-1.784322e-01 7.961809e+00 1.201452e+00) (-3.884974e-03 2.631419e-01 -2.304422e-03) (0.000000e+00 0.000000e+00 0.000000e+00)) ((5.294496e+00 -1.175196e+01 8.126384e+01) (-2.581424e-01 1.722630e-02 2.667737e+00) (0.000000e+00 0.000000e+00 0.000000e+00))
0.0002525     	((-1.778287e-01 7.962840e+00 1.205215e+00) (-3.880349e-03 2.631028e-01 -2.283791e-03) (0.000000e+00 0.000000e+00 0.000000e+00)) ((5.330106e+00 -1.178946e+01 8.126793e+01) (-2.579450e-01 1.702203e-02 2.667298e+00) (0.000000e+00 0.000000e+00 0.000000e+00))
0.000255      	((-1.770903e-01 7.963727e+00 1.208434e+00) (-3.888978e-03 2.630480e-01 -2.259235e-03) (0.000000e+00 0.000000e+00 0.000000e+00)) ((5.360585e+00 -1.182145e+01 8.126968e+01) (-2.576934e-01 1.676951e-02 2.666831e+00) (0.000000e+00 0.000000e+00 0.000000e+00))
0.0002575     	((-1.774491e-01 7.964225e+00 1.211191e+00) (-3.888510e-03 2.630108e-01 -2.241731e-03) (0.000000e+00 0.000000e+00 0.000000e+00)) ((5.386770e+00 -1.184935e+01 8.127855e+01) (-2.575233e-01 1.659358e-02 2.666457e+00) (0.000000e+00 0.000000e+00 0.000000e+00))
0.00026       	((-1.774243e-01 7.964672e+00 1.212973e+00) (-3.904337e-03 2.629633e-01 -2.227733e-03) (0.000000e+00 0.000000e+00 0.000000e+00)) ((5.403366e+00 -1.186717e+01 8.128337e+01) (-2.573803e-01 1.644115e-02 2.666140e+00) (0.000000e+00 0.000000e+00 0.000000e+00))
0.0002625     	((-1.780521e-01 7.964912e+00 1.214045e+00) (-3.910681e-03 2.629319e-01 -2.221395e-03) (0.000000e+00 0.000000e+00 0.000000e+00)) ((5.412977e+00 -1.187809e+01 8.129245e+01) (-2.573248e-01 1.637111e-02 2.665895e+00) (0.000000e+00 0.000000e+00 0.000000e+00))
0.000265      	((-1.776555e-01 7.965272e+00 1.214274e+00) (-3.927120e-03 2.628874e-01 -2.215839e-03) (0.000000e+00 0.000000e+00 0.000000e+00)) ((5.414169e+00 -1.187982e+01 8.129260e+01) (-2.572670e-01 1.630262e-02 2.665615e+00) (0.000000e+00 0.000000e+00 0.000000e+00))
0.0002675     	((-1.772992e-01 7.965561e+00 1.214141e+00) (-3.931441e-03 2.628606e-01 -2.219203e-03) (0.000000e+00 0.000000e+00 0.000000e+00)) ((5.411729e+00 -1.187775e+01 8.129200e+01) (-2.573119e-01 1.633131e-02 2.665396e+00) (0.000000e+00 0.000000e+00 0.000000e+00))
0.00027       	((-1.754015e-01 7.966063e+00 1.213497e+00) (-3.948873e-03 2.628206e-01 -2.225617e-03) (0.000000e+00 0.000000e+00 0.000000e+00)) ((5.404064e+00 -1.186956e+01 8.127803e+01) (-2.573798e-01 1.638103e-02 2.665170e+00) (0.000000e+00 0.000000e+00 0.000000e+00))
0.0002725     	((-1.731479e-01 7.966554e+00 1.212878e+00) (-3.950774e-03 2.627980e-01 -2.238759e-03) (0.000000e+00 0.000000e+00 0.000000e+00)) ((5.396569e+00 -1.186130e+01 8.125986e+01) (-2.575285e-01 1.650860e-02 2.664969e+00) (0.000000e+00 0.000000e+00 0.000000e+00))
0.000275      	((-1.691320e-01 7.967273e+00 1.212275e+00) (-3.959823e-03 2.627577e-01 -2.248670e-03) (0.000000e+00 0.000000e+00 0.000000e+00)) ((5.389091e+00 -1.185216e+01 8.122620e+01) (-2.576321e-01 1.659955e-02 2.664655e+00) (0.000000e+00 0.000000e+00 0.000000e+00))