# Forces      
# CofR        : (0.000000e+00 0.000000e+00 0.000000e+00)
# Time        forces(pressure viscous porous)	moments(pressure viscous porous)
2.5e-06       	((5.021197e-01 1.132840e+01 6.966290e-01) (7.345949e-04 3.533220e-01 1.732658e-03) (0.000000e+00 0.000000e+00 0.000000e+00)) ((-3.696581e+00 -6.527264e+00 1.080903e+02) (-3.249193e-01 -1.602061e-02 3.520695e+00) (0.000000e+00 0.000000e+00 0.000000e+00))
5e-06         	((1.436791e+00 4.932246e+01 8.849933e-01) (2.993600e-03 4.575523e-01 -2.373819e-03) (0.000000e+00 0.000000e+00 0.000000e+00)) ((-3.585821e+01 -8.171795e+00 4.778845e+02) (-4.253599e-01 2.674648e-02 4.538412e+00) (0.000000e+00 0.000000e+00 0.000000e+00))
7.5e-06       	((-9.447404e-01 1.016280e+02 1.339245e+01) (4.681377e-03 4.121406e-01 -4.888265e-03) (0.000000e+00 0.000000e+00 0.000000e+00)) ((3.472969e+01 -1.351783e+02 1.024535e+03) (-4.045937e-01 5.454646e-02 4.069379e+00) (0.000000e+00 0.000000e+00 0.000000e+00))
1e-05         	((-5.848614e-01 6.554684e+01 2.626224e+00) (1.185727e-02 3.329539e-01 -4.561024e-02) (0.000000e+00 0.000000e+00 0.000000e+00)) ((-3.408784e+01 -2.682253e+01 6.606341e+02) (-7.309245e-01 4.686132e-01 3.205766e+00) (0.000000e+00 0.000000e+00 0.000000e+00))
1.25e-05      	((3.168787e+00 1.245477e+01 -1.171963e+01) (1.723296e-02 3.447306e-01 -2.073311e-02) (0.000000e+00 0.000000e+00 0.000000e+00)) ((-1.222858e+02 1.207326e+02 9.262912e+01) (-4.899542e-01 2.226533e-01 3.268602e+00) (0.000000e+00 0.000000e+00 0.000000e+00))
1.5e-05       	((2.162312e+00 -4.980891e-02 -7.983515e+00) (1.510793e-02 3.323010e-01 -4.506220e-03) (0.000000e+00 0.000000e+00 0.000000e+00)) ((-7.464525e+01 8.261774e+01 -2.216787e+01) (-3.170036e-01 5.612367e-02 3.165892e+00) (0.000000e+00 0.000000e+00 0.000000e+00))
1.75e-05      	((-2.593927e-01 8.531735e+00 4.291886e-01) (9.291311e-03 3.206282e-01 3.860767e-03) (0.000000e+00 0.000000e+00 0.000000e+00)) ((-2.219900e+00 -3.853673e+00 8.789926e+01) (-2.381911e-01 -3.155052e-02 3.107933e+00) (0.000000e+00 0.000000e+00 0.000000e+00))
2e-05         	((-1.104857e+00 1.640372e+01 4.608087e+00) (2.413159e-03 3.055917e-01 5.848989e-03) (0.000000e+00 0.000000e+00 0.000000e+00)) ((3.007059e+01 -4.659294e+01 1.750038e+02) (-2.102171e-01 -5.708871e-02 3.027994e+00) (0.000000e+00 0.000000e+00 0.000000e+00))
2.25e-05      	((-7.016402e-01 1.577572e+01 3.307123e+00) (-1.392917e-04 2.894222e-01 3.777153e-04) (0.000000e+00 0.000000e+00 0.000000e+00)) ((1.766695e+01 -3.337324e+01 1.646615e+02) (-2.493235e-01 -4.379069e-03 2.892435e+00) (0.000000e+00 0.000000e+00 0.000000e+00))
2.5e-05       	((-1.116298e-01 9.679588e+00 -2.401238e-01) (-1.127661e-03 2.767657e-01 -5.650867e-03) (0.000000e+00 0.000000e+00 0.000000e+00)) ((-1.098436e+01 2.530574e+00 9.786506e+01) (-2.961517e-01 5.506621e-02 2.775780e+00) (0.000000e+00 0.000000e+00 0.000000e+00))
2.75e-05      	((4.796165e-02 5.165375e+00 -2.208759e+00) (-1.120335e-03 2.631153e-01 -9.941196e-03) (0.000000e+00 0.000000e+00 0.000000e+00)) ((-2.561879e+01 2.230511e+01 5.121122e+01) (-3.237595e-01 9.794451e-02 2.639326e+00) (0.000000e+00 0.000000e+00 0.000000e+00))
3e-05         	((-1.289676e-01 5.454467e+00 -1.457441e+00) (-4.778654e-04 2.551698e-01 -8.845928e-03) (0.000000e+00 0.000000e+00 0.000000e+00)) ((-1.840718e+01 1.462390e+01 5.589378e+01) (-3.037265e-01 8.760489e-02 2.553410e+00) (0.000000e+00 0.000000e+00 0.000000e+00))
3.25e-05      	((-2.875939e-01 8.456874e+00 4.864685e-01) (-1.171477e-04 2.542883e-01 -5.157537e-03) (0.000000e+00 0.000000e+00 0.000000e+00)) ((-2.326185e+00 -4.929822e+00 8.746249e+01) (-2.661563e-01 5.114156e-02 2.540870e+00) (0.000000e+00 0.000000e+00 0.000000e+00))
3.5e-05       	((-2.429085e-01 1.044530e+01 1.601040e+00) (-7.292176e-07 2.561583e-01 -1.590184e-03) (0.000000e+00 0.000000e+00 0.000000e+00)) ((6.507093e+00 -1.599534e+01 1.068494e+02) (-2.334579e-01 1.571768e-02 2.558229e+00) (0.000000e+00 0.000000e+00 0.000000e+00))
3.75e-05      	((-6.939141e-02 9.967752e+00 1.304285e+00) (-1.786535e-04 2.559078e-01 2.235773e-04) (0.000000e+00 0.000000e+00 0.000000e+00)) ((3.917052e+00 -1.284719e+01 1.003218e+02) (-2.162221e-01 -2.486151e-03 2.557410e+00) (0.000000e+00 0.000000e+00 0.000000e+00))
4e-05         	((5.948962e-02 8.220076e+00 3.955287e-01) (-5.872473e-04 2.522851e-01 4.272398e-05) (0.000000e+00 0.000000e+00 0.000000e+00)) ((-3.354485e+00 -3.639163e+00 8.157123e+01) (-2.152502e-01 -9.819853e-04 2.525280e+00) (0.000000e+00 0.000000e+00 0.000000e+00))
4.25e-05      	((5.708910e-02 7.033984e+00 -1.330675e-01) (-1.014223e-03 2.468255e-01 -1.206295e-03) (0.000000e+00 0.000000e+00 0.000000e+00)) ((-7.371871e+00 1.642681e+00 6.975390e+01) (-2.229442e-01 1.112573e-02 2.475041e+00) (0.000000e+00 0.000000e+00 0.000000e+00))
4.5e-05       	((-4.678020e-02 7.147409e+00 3.042548e-02) (-1.355908e-03 2.422771e-01 -2.350237e-03) (0.000000e+00 0.000000e+00 0.000000e+00)) ((-5.847165e+00 -7.778145e-02 7.193096e+01) (-2.305037e-01 2.225984e-02 2.433039e+00) (0.000000e+00 0.000000e+00 0.000000e+00))
4.75e-05      	((-1.691753e-01 7.998433e+00 5.279966e-01) (-1.606839e-03 2.402352e-01 -2.459015e-03) (0.000000e+00 0.000000e+00 0.000000e+00)) ((-1.791486e+00 -5.141806e+00 8.165463e+01) (-2.302191e-01 2.315857e-02 2.415122e+00) (0.000000e+00 0.000000e+00 0.000000e+00))
5e-05         	((-2.427294e-01 8.645570e+00 8.767384e-01) (-1.726041e-03 2.399984e-01 -1.940025e-03) (0.000000e+00 0.000000e+00 0.000000e+00)) ((9.657328e-01 -8.669339e+00 8.884872e+01) (-2.254028e-01 1.794242e-02 2.413871e+00) (0.000000e+00 0.000000e+00 0.000000e+00))
5.25e-05      	((-2.558385e-01 8.681544e+00 9.050686e-01) (-1.758684e-03 2.400695e-01 -1.568443e-03) (0.000000e+00 0.000000e+00 0.000000e+00)) ((1.164104e+00 -8.946513e+00 8.933270e+01) (-2.222614e-01 1.427905e-02 2.414836e+00) (0.000000e+00 0.000000e+00 0.000000e+00))
5.5e-05       	((-2.436018e-01 8.312446e+00 7.561029e-01) (-1.729650e-03 2.394488e-01 -1.565672e-03) (0.000000e+00 0.000000e+00 0.000000e+00)) ((2.944758e-02 -7.439151e+00 8.551915e+01) (-2.220483e-01 1.433905e-02 2.408283e+00) (0.000000e+00 0.000000e+00 0.000000e+00))
5.75e-05      	((-2.398119e-01 7.930782e+00 6.115728e-01) (-1.686830e-03 2.380324e-01 -1.994882e-03) (0.000000e+00 0.000000e+00 0.000000e+00)) ((-1.032963e+00 -5.989582e+00 8.166631e+01) (-2.253420e-01 1.871688e-02 2.393650e+00) (0.000000e+00 0.000000e+00 0.000000e+00))
6e-05         	((-2.583767e-01 7.780412e+00 5.817362e-01) (-1.711527e-03 2.362778e-01 -2.612369e-03) (0.000000e+00 0.000000e+00 0.000000e+00)) ((-1.183322e+00 -5.709956e+00 8.034758e+01) (-2.301843e-01 2.491168e-02 2.376323e+00) (0.000000e+00 0.000000e+00 0.000000e+00))
6.25e-05      	((-3.020568e-01 7.834934e+00 6.459077e-01) (-1.733397e-03 2.347729e-01 -3.280270e-03) (0.000000e+00 0.000000e+00 0.000000e+00)) ((-6.092500e-01 -6.393377e+00 8.132693e+01) (-2.357752e-01 3.160341e-02 2.361497e+00) (0.000000e+00 0.000000e+00 0.000000e+00))
6.5e-05       	((-3.527320e-01 7.977404e+00 7.420194e-01) (-1.822842e-03 2.335809e-01 -3.818643e-03) (0.000000e+00 0.000000e+00 0.000000e+00)) ((1.871418e-01 -7.401828e+00 8.325482e+01) (-2.403734e-01 3.695125e-02 2.350473e+00) (0.000000e+00 0.000000e+00 0.000000e+00))
6.75e-05      	((-3.981824e-01 8.082045e+00 8.182311e-01) (-1.923815e-03 2.327172e-01 -4.181431e-03) (0.000000e+00 0.000000e+00 0.000000e+00)) ((8.195406e-01 -8.205606e+00 8.475257e+01) (-2.434955e-01 4.054942e-02 2.342859e+00) (0.000000e+00 0.000000e+00 0.000000e+00))
7e-05         	((-4.367862e-01 8.096962e+00 8.614290e-01) (-2.111928e-03 2.318421e-01 -4.378548e-03) (0.000000e+00 0.000000e+00 0.000000e+00)) ((1.214400e+00 -8.671880e+00 8.528632e+01) (-2.449318e-01 4.241520e-02 2.335987e+00) (0.000000e+00 0.000000e+00 0.000000e+00))
7.25e-05      	((-4.718980e-01 8.046119e+00 8.877963e-01) (-2.168710e-03 2.311686e-01 -4.657958e-03) (0.000000e+00 0.000000e+00 0.000000e+00)) ((1.511531e+00 -8.965589e+00 8.513058e+01) (-2.472924e-01 4.521376e-02 2.329876e+00) (0.000000e+00 0.000000e+00 0.000000e+00))
7.5e-05       	((-5.099658e-01 7.983451e+00 9.171668e-01) (-2.302226e-03 2.303319e-01 -4.875535e-03) (0.000000e+00 0.000000e+00 0.000000e+00)) ((1.854476e+00 -9.290727e+00 8.488907e+01) (-2.488903e-01 4.732653e-02 2.322872e+00) (0.000000e+00 0.000000e+00 0.000000e+00))
7.75e-05      	((-5.531504e-01 7.947411e+00 9.592891e-01) (-2.414545e-03 2.294715e-01 -5.096950e-03) (0.000000e+00 0.000000e+00 0.000000e+00)) ((2.300180e+00 -9.746632e+00 8.496672e+01) (-2.505070e-01 4.949793e-02 2.315427e+00) (0.000000e+00 0.000000e+00 0.000000e+00))
8e-05         	((-5.979203e-01 7.944527e+00 1.011715e+00) (-2.567706e-03 2.287563e-01 -5.334719e-03) (0.000000e+00 0.000000e+00 0.000000e+00)) ((2.816260e+00 -1.030593e+01 8.539239e+01) (-2.524514e-01 5.180382e-02 2.309829e+00) (0.000000e+00 0.000000e+00 0.000000e+00))
8.25e-05      	((-6.410340e-01 7.959965e+00 1.067523e+00) (-2.669868e-03 2.281660e-01 -5.570940e-03) (0.000000e+00 0.000000e+00 0.000000e+00)) ((3.347785e+00 -1.089703e+01 8.598448e+01) (-2.545754e-01 5.413675e-02 2.304991e+00) (0.000000e+00 0.000000e+00 0.000000e+00))
8.5e-05       	((-6.806482e-01 7.976204e+00 1.119906e+00) (-2.820030e-03 2.277304e-01 -5.798496e-03) (0.000000e+00 0.000000e+00 0.000000e+00)) ((3.844709e+00 -1.145091e+01 8.654914e+01) (-2.567696e-01 5.633830e-02 2.302156e+00) (0.000000e+00 0.000000e+00 0.000000e+00))
8.75e-05      	((-7.168863e-01 7.984726e+00 1.167268e+00) (-2.912952e-03 2.273009e-01 -6.041109e-03) (0.000000e+00 0.000000e+00 0.000000e+00)) ((4.299675e+00 -1.195206e+01 8.700254e+01) (-2.591519e-01 5.873234e-02 2.298824e+00) (0.000000e+00 0.000000e+00 0.000000e+00))
9e-05         	((-7.496593e-01 7.986633e+00 1.209545e+00) (-3.040686e-03 2.269599e-01 -6.291785e-03) (0.000000e+00 0.000000e+00 0.000000e+00)) ((4.710924e+00 -1.239977e+01 8.735498e+01) (-2.617030e-01 6.116972e-02 2.296703e+00) (0.000000e+00 0.000000e+00 0.000000e+00))
9.25e-05      	((-7.795763e-01 7.986368e+00 1.248435e+00) (-3.102435e-03 2.265836e-01 -6.561948e-03) (0.000000e+00 0.000000e+00 0.000000e+00)) ((5.090624e+00 -1.281166e+01 8.765687e+01) (-2.644368e-01 6.384744e-02 2.293584e+00) (0.000000e+00 0.000000e+00 0.000000e+00))
9.5e-05       	((-8.059498e-01 7.986787e+00 1.284103e+00) (-3.203734e-03 2.262956e-01 -6.832562e-03) (0.000000e+00 0.000000e+00 0.000000e+00)) ((5.437569e+00 -1.318926e+01 8.792950e+01) (-2.672564e-01 6.648544e-02 2.291720e+00) (0.000000e+00 0.000000e+00 0.000000e+00))
9.75e-05      	((-8.277079e-01 7.987667e+00 1.317165e+00) (-3.248212e-03 2.260499e-01 -7.117374e-03) (0.000000e+00 0.000000e+00 0.000000e+00)) ((5.758187e+00 -1.353853e+01 8.815897e+01) (-2.702627e-01 6.929707e-02 2.289715e+00) (0.000000e+00 0.000000e+00 0.000000e+00))
0.0001        	((-8.421817e-01 7.988184e+00 1.347112e+00) (-3.311082e-03 2.258808e-01 -7.366832e-03) (0.000000e+00 0.000000e+00 0.000000e+00)) ((6.048607e+00 -1.385275e+01 8.830941e+01) (-2.729562e-01 7.173701e-02 2.288641e+00) (0.000000e+00 0.000000e+00 0.000000e+00))
0.0001025     	((-8.500182e-01 7.988608e+00 1.374194e+00) (-3.311741e-03 2.257344e-01 -7.602522e-03) (0.000000e+00 0.000000e+00 0.000000e+00)) ((6.311111e+00 -1.413534e+01 8.838978e+01) (-2.755096e-01 7.408002e-02 2.287179e+00) (0.000000e+00 0.000000e+00 0.000000e+00))
0.000105      	((-8.511543e-01 7.990188e+00 1.397817e+00) (-3.350955e-03 2.256823e-01 -7.801709e-03) (0.000000e+00 0.000000e+00 0.000000e+00)) ((6.538637e+00 -1.437982e+01 8.841242e+01) (-2.777475e-01 7.601838e-02 2.287026e+00) (0.000000e+00 0.000000e+00 0.000000e+00))
0.0001075     	((-8.465144e-01 7.994005e+00 1.418724e+00) (-3.333974e-03 2.255148e-01 -7.960195e-03) (0.000000e+00 0.000000e+00 0.000000e+00)) ((6.737428e+00 -1.459333e+01 8.839812e+01) (-2.794387e-01 7.758823e-02 2.285177e+00) (0.000000e+00 0.000000e+00 0.000000e+00))
0.00011       	((-8.380954e-01 7.999386e+00 1.436108e+00) (-3.275947e-03 2.255483e-01 -8.127112e-03) (0.000000e+00 0.000000e+00 0.000000e+00)) ((6.900139e+00 -1.476848e+01 8.836133e+01) (-2.813927e-01 7.929622e-02 2.284906e+00) (0.000000e+00 0.000000e+00 0.000000e+00))
0.0001125     	((-8.283215e-01 8.006308e+00 1.450721e+00) (-3.230703e-03 2.255290e-01 -8.271170e-03) (0.000000e+00 0.000000e+00 0.000000e+00)) ((7.034104e+00 -1.491396e+01 8.832671e+01) (-2.830565e-01 8.074837e-02 2.284248e+00) (0.000000e+00 0.000000e+00 0.000000e+00))
0.000115      	((-8.174355e-01 8.014053e+00 1.462414e+00) (-3.214514e-03 2.256064e-01 -8.413268e-03) (0.000000e+00 0.000000e+00 0.000000e+00)) ((7.138564e+00 -1.502776e+01 8.829003e+01) (-2.847855e-01 8.216243e-02 2.284831e+00) (0.000000e+00 0.000000e+00 0.000000e+00))
0.0001175     	((-8.040786e-01 8.021960e+00 1.472458e+00) (-3.156937e-03 2.255447e-01 -8.540029e-03) (0.000000e+00 0.000000e+00 0.000000e+00)) ((7.226695e+00 -1.512071e+01 8.823074e+01) (-2.862269e-01 8.345814e-02 2.283629e+00) (0.000000e+00 0.000000e+00 0.000000e+00))
0.00012       	((-7.893744e-01 8.028706e+00 1.480498e+00) (-3.112189e-03 2.255741e-01 -8.669435e-03) (0.000000e+00 0.000000e+00 0.000000e+00)) ((7.296216e+00 -1.519030e+01 8.814718e+01) (-2.877743e-01 8.478581e-02 2.283450e+00) (0.000000e+00 0.000000e+00 0.000000e+00))
0.0001225     	((-7.731110e-01 8.035352e+00 1.487838e+00) (-3.084914e-03 2.254733e-01 -8.778209e-03) (0.000000e+00 0.000000e+00 0.000000e+00)) ((7.358897e+00 -1.524945e+01 8.804758e+01) (-2.889807e-01 8.588128e-02 2.282165e+00) (0.000000e+00 0.000000e+00 0.000000e+00))
0.000125      	((-7.571406e-01 8.040386e+00 1.492775e+00) (-2.996403e-03 2.255666e-01 -8.895368e-03) (0.000000e+00 0.000000e+00 0.000000e+00)) ((7.399082e+00 -1.528329e+01 8.793599e+01) (-2.904547e-01 8.714329e-02 2.282194e+00) (0.000000e+00 0.000000e+00 0.000000e+00))
0.0001275     	((-7.403766e-01 8.046415e+00 1.496767e+00) (-3.086250e-03 2.252732e-01 -8.963951e-03) (0.000000e+00 0.000000e+00 0.000000e+00)) ((7.428689e+00 -1.530550e+01 8.782687e+01) (-2.910349e-01 8.771733e-02 2.280161e+00) (0.000000e+00 0.000000e+00 0.000000e+00))
0.00013       	((-7.237759e-01 8.051519e+00 1.498900e+00) (-2.857724e-03 2.254772e-01 -9.077921e-03) (0.000000e+00 0.000000e+00 0.000000e+00)) ((7.440725e+00 -1.530815e+01 8.771095e+01) (-2.925898e-01 8.910842e-02 2.279903e+00) (0.000000e+00 0.000000e+00 0.000000e+00))
0.0001325     	((-7.117505e-01 8.056480e+00 1.498226e+00) (-2.732533e-03 2.254461e-01 -9.183377e-03) (0.000000e+00 0.000000e+00 0.000000e+00)) ((7.424769e+00 -1.528673e+01 8.764027e+01) (-2.938136e-01 9.029555e-02 2.278345e+00) (0.000000e+00 0.000000e+00 0.000000e+00))
0.000135      	((-6.992029e-01 8.062784e+00 1.496811e+00) (-2.733091e-03 2.254100e-01 -9.271028e-03) (0.000000e+00 0.000000e+00 0.000000e+00)) ((7.400351e+00 -1.525709e+01 8.757778e+01) (-2.948249e-01 9.117971e-02 2.277980e+00) (0.000000e+00 0.000000e+00 0.000000e+00))
0.0001375     	((-6.875473e-01 8.068024e+00 1.494710e+00) (-2.568228e-03 2.254227e-01 -9.387267e-03) (0.000000e+00 0.000000e+00 0.000000e+00)) ((7.370388e+00 -1.522149e+01 8.751366e+01) (-2.961847e-01 9.251569e-02 2.276462e+00) (0.000000e+00 0.000000e+00 0.000000e+00))
0.00014       	((-6.750545e-01 8.074617e+00 1.492383e+00) (-2.649665e-03 2.252486e-01 -9.468728e-03) (0.000000e+00 0.000000e+00 0.000000e+00)) ((7.337113e+00 -1.518315e+01 8.745413e+01) (-2.969662e-01 9.324571e-02 2.275528e+00) (0.000000e+00 0.000000e+00 0.000000e+00))
0.0001425     	((-6.634942e-01 8.079494e+00 1.489467e+00) (-2.429620e-03 2.253470e-01 -9.601672e-03) (0.000000e+00 0.000000e+00 0.000000e+00)) ((7.299846e+00 -1.514022e+01 8.738643e+01) (-2.985712e-01 9.480847e-02 2.274317e+00) (0.000000e+00 0.000000e+00 0.000000e+00))
0.000145      	((-6.547952e-01 8.084073e+00 1.484650e+00) (-2.368999e-03 2.253566e-01 -9.711097e-03) (0.000000e+00 0.000000e+00 0.000000e+00)) ((7.243915e+00 -1.508178e+01 8.734416e+01) (-2.998210e-01 9.597123e-02 2.273799e+00) (0.000000e+00 0.000000e+00 0.000000e+00))
0.0001475     	((-6.462691e-01 8.089134e+00 1.479369e+00) (-2.282542e-03 2.252756e-01 -9.833833e-03) (0.000000e+00 0.000000e+00 0.000000e+00)) ((7.182823e+00 -1.501930e+01 8.730782e+01) (-3.011200e-01 9.728330e-02 2.272131e+00) (0.000000e+00 0.000000e+00 0.000000e+00))
0.00015       	((-6.369817e-01 8.095070e+00 1.474399e+00) (-2.237445e-03 2.252458e-01 -9.960454e-03) (0.000000e+00 0.000000e+00 0.000000e+00)) ((7.124030e+00 -1.495960e+01 8.727210e+01) (-3.024939e-01 9.859983e-02 2.271370e+00) (0.000000e+00 0.000000e+00 0.000000e+00))
0.0001525     	((-6.284663e-01 8.101450e+00 1.471107e+00) (-2.168572e-03 2.251640e-01 -1.009786e-02) (0.000000e+00 0.000000e+00 0.000000e+00)) ((7.081631e+00 -1.491776e+01 8.724815e+01) (-3.039341e-01 1.000392e-01 2.269861e+00) (0.000000e+00 0.000000e+00 0.000000e+00))
0.000155      	((-6.213862e-01 8.107528e+00 1.469406e+00) (-2.144044e-03 2.251324e-01 -1.023345e-02) (0.000000e+00 0.000000e+00 0.000000e+00)) ((7.055583e+00 -1.489345e+01 8.723525e+01) (-3.054023e-01 1.014216e-01 2.269279e+00) (0.000000e+00 0.000000e+00 0.000000e+00))
0.0001575     	((-6.156854e-01 8.113437e+00 1.469941e+00) (-2.084744e-03 2.250600e-01 -1.038458e-02) (0.000000e+00 0.000000e+00 0.000000e+00)) ((7.052115e+00 -1.489304e+01 8.723419e+01) (-3.069957e-01 1.029824e-01 2.267958e+00) (0.000000e+00 0.000000e+00 0.000000e+00))
0.00016       	((-6.107400e-01 8.118990e+00 1.471998e+00) (-2.047838e-03 2.250572e-01 -1.053562e-02) (0.000000e+00 0.000000e+00 0.000000e+00)) ((7.064269e+00 -1.490875e+01 8.723692e+01) (-3.086498e-01 1.045254e-01 2.267544e+00) (0.000000e+00 0.000000e+00 0.000000e+00))
0.0001625     	((-6.062496e-01 8.124765e+00 1.476052e+00) (-1.995809e-03 2.249747e-01 -1.068298e-02) (0.000000e+00 0.000000e+00 0.000000e+00)) ((7.096074e+00 -1.494489e+01 8.724602e+01) (-3.101997e-01 1.060384e-01 2.266197e+00) (0.000000e+00 0.000000e+00 0.000000e+00))
0.000165      	((-6.026689e-01 8.130439e+00 1.480843e+00) (-1.972718e-03 2.249942e-01 -1.082272e-02) (0.000000e+00 0.000000e+00 0.000000e+00)) ((7.135206e+00 -1.498924e+01 8.726320e+01) (-3.117684e-01 1.074575e-01 2.266142e+00) (0.000000e+00 0.000000e+00 0.000000e+00))
0.0001675     	((-5.995580e-01 8.137132e+00 1.486729e+00) (-1.966620e-03 2.248892e-01 -1.094561e-02) (0.000000e+00 0.000000e+00 0.000000e+00)) ((7.184115e+00 -1.504471e+01 8.729521e+01) (-3.130518e-01 1.086814e-01 2.265031e+00) (0.000000e+00 0.000000e+00 0.000000e+00))
0.00017       	((-5.983754e-01 8.143412e+00 1.491716e+00) (-1.944943e-03 2.249302e-01 -1.105729e-02) (0.000000e+00 0.000000e+00 0.000000e+00)) ((7.224324e+00 -1.509276e+01 8.734296e+01) (-3.143637e-01 1.098256e-01 2.265210e+00) (0.000000e+00 0.000000e+00 0.000000e+00))
0.0001725     	((-5.978055e-01 8.151039e+00 1.496802e+00) (-2.122166e-03 2.246375e-01 -1.111467e-02) (0.000000e+00 0.000000e+00 0.000000e+00)) ((7.264168e+00 -1.514183e+01 8.741047e+01) (-3.147805e-01 1.102034e-01 2.264058e+00) (0.000000e+00 0.000000e+00 0.000000e+00))
0.000175      	((-5.986575e-01 8.156965e+00 1.500510e+00) (-2.004305e-03 2.248561e-01 -1.120091e-02) (0.000000e+00 0.000000e+00 0.000000e+00)) ((7.292060e+00 -1.517792e+01 8.747607e+01) (-3.160220e-01 1.112079e-01 2.265057e+00) (0.000000e+00 0.000000e+00 0.000000e+00))
0.0001775     	((-6.050655e-01 8.161798e+00 1.501747e+00) (-2.007113e-03 2.248515e-01 -1.125744e-02) (0.000000e+00 0.000000e+00 0.000000e+00)) ((7.296323e+00 -1.519435e+01 8.758748e+01) (-3.167336e-01 1.117792e-01 2.265047e+00) (0.000000e+00 0.000000e+00 0.000000e+00))
0.00018       	((-6.109588e-01 8.167391e+00 1.502347e+00) (-2.133451e-03 2.248126e-01 -1.127025e-02) (0.000000e+00 0.000000e+00 0.000000e+00)) ((7.293724e+00 -1.520341e+01 8.770173e+01) (-3.169475e-01 1.117949e-01 2.265924e+00) (0.000000e+00 0.000000e+00 0.000000e+00))
0.0001825     	((-6.180752e-01 8.171983e+00 1.502140e+00) (-2.123596e-03 2.248361e-01 -1.127818e-02) (0.000000e+00 0.000000e+00 0.000000e+00)) ((7.284312e+00 -1.520516e+01 8.781885e+01) (-3.171859e-01 1.119041e-01 2.266078e+00) (0.000000e+00 0.000000e+00 0.000000e+00))
0.000185      	((-6.243703e-01 8.177549e+00 1.501959e+00) (-2.391812e-03 2.246444e-01 -1.122086e-02) (0.000000e+00 0.000000e+00 0.000000e+00)) ((7.274486e+00 -1.520611e+01 8.793762e+01) (-3.165094e-01 1.110723e-01 2.266856e+00) (0.000000e+00 0.000000e+00 0.000000e+00))
0.0001875     	((-6.313159e-01 8.180910e+00 1.501559e+00) (-2.299809e-03 2.248185e-01 -1.120419e-02) (0.000000e+00 0.000000e+00 0.000000e+00)) ((7.265028e+00 -1.520536e+01 8.804141e+01) (-3.166431e-01 1.110313e-01 2.267704e+00) (0.000000e+00 0.000000e+00 0.000000e+00))
0.00019       	((-6.418944e-01 8.182347e+00 1.498640e+00) (-2.387685e-03 2.248931e-01 -1.115888e-02) (0.000000e+00 0.000000e+00 0.000000e+00)) ((7.232342e+00 -1.518320e+01 8.816321e+01) (-3.163580e-01 1.105225e-01 2.269350e+00) (0.000000e+00 0.000000e+00 0.000000e+00))
0.0001925     	((-6.516272e-01 8.183372e+00 1.495359e+00) (-2.487990e-03 2.248683e-01 -1.108387e-02) (0.000000e+00 0.000000e+00 0.000000e+00)) ((7.196544e+00 -1.515640e+01 8.827253e+01) (-3.156700e-01 1.096923e-01 2.270139e+00) (0.000000e+00 0.000000e+00 0.000000e+00))
0.000195      	((-6.599804e-01 8.182349e+00 1.490391e+00) (-2.563449e-03 2.249594e-01 -1.100779e-02) (0.000000e+00 0.000000e+00 0.000000e+00)) ((7.145932e+00 -1.511141e+01 8.834791e+01) (-3.150737e-01 1.088907e-01 2.271830e+00) (0.000000e+00 0.000000e+00 0.000000e+00))
0.0001975     	((-6.649700e-01 8.181691e+00 1.485344e+00) (-2.893168e-03 2.246410e-01 -1.086866e-02) (0.000000e+00 0.000000e+00 0.000000e+00)) ((7.094294e+00 -1.506236e+01 8.839287e+01) (-3.134014e-01 1.071697e-01 2.271981e+00) (0.000000e+00 0.000000e+00 0.000000e+00))
0.0002        	((-6.667063e-01 8.178233e+00 1.478993e+00) (-2.789411e-03 2.249974e-01 -1.079315e-02) (0.000000e+00 0.000000e+00 0.000000e+00)) ((7.032510e+00 -1.499734e+01 8.837732e+01) (-3.130751e-01 1.065689e-01 2.274535e+00) (0.000000e+00 0.000000e+00 0.000000e+00))
0.0002025     	((-6.723979e-01 8.172007e+00 1.468883e+00) (-2.812363e-03 2.250654e-01 -1.069580e-02) (0.000000e+00 0.000000e+00 0.000000e+00)) ((6.935783e+00 -1.489934e+01 8.837426e+01) (-3.122208e-01 1.055981e-01 2.275486e+00) (0.000000e+00 0.000000e+00 0.000000e+00))
0.000205      	((-6.743245e-01 8.166793e+00 1.457660e+00) (-2.953316e-03 2.251085e-01 -1.056106e-02) (0.000000e+00 0.000000e+00 0.000000e+00)) ((6.826939e+00 -1.478710e+01 8.834299e+01) (-3.109364e-01 1.041338e-01 2.277356e+00) (0.000000e+00 0.000000e+00 0.000000e+00))
0.0002075     	((-6.730616e-01 8.160877e+00 1.445895e+00) (-2.958419e-03 2.251911e-01 -1.044730e-02) (0.000000e+00 0.000000e+00 0.000000e+00)) ((6.713561e+00 -1.466674e+01 8.827218e+01) (-3.099079e-01 1.030116e-01 2.278270e+00) (0.000000e+00 0.000000e+00 0.000000e+00))
0.00021       	((-6.664953e-01 8.156110e+00 1.434288e+00) (-3.314553e-03 2.249145e-01 -1.027496e-02) (0.000000e+00 0.000000e+00 0.000000e+00)) ((6.600831e+00 -1.454333e+01 8.815863e+01) (-3.078764e-01 1.009281e-01 2.279091e+00) (0.000000e+00 0.000000e+00 0.000000e+00))
0.0002125     	((-6.570260e-01 8.149805e+00 1.422763e+00) (-3.094601e-03 2.252251e-01 -1.017909e-02) (0.000000e+00 0.000000e+00 0.000000e+00)) ((6.490829e+00 -1.441835e+01 8.800003e+01) (-3.072548e-01 1.002198e-01 2.280028e+00) (0.000000e+00 0.000000e+00 0.000000e+00))
0.000215      	((-6.530268e-01 8.141102e+00 1.407256e+00) (-3.098818e-03 2.253618e-01 -1.007764e-02) (0.000000e+00 0.000000e+00 0.000000e+00)) ((6.343422e+00 -1.425992e+01 8.787278e+01) (-3.063638e-01 9.921981e-02 2.281452e+00) (0.000000e+00 0.000000e+00 0.000000e+00))
0.0002175     	((-6.481610e-01 8.134608e+00 1.391555e+00) (-3.113639e-03 2.253504e-01 -9.956634e-03) (0.000000e+00 0.000000e+00 0.000000e+00)) ((6.192159e+00 -1.409919e+01 8.775831e+01) (-3.051204e-01 9.799420e-02 2.281509e+00) (0.000000e+00 0.000000e+00 0.000000e+00))
0.00022       	((-6.408637e-01 8.128256e+00 1.375797e+00) (-3.100255e-03 2.254344e-01 -9.863407e-03) (0.000000e+00 0.000000e+00 0.000000e+00)) ((6.040641e+00 -1.393586e+01 8.762050e+01) (-3.042351e-01 9.708322e-02 2.282220e+00) (0.000000e+00 0.000000e+00 0.000000e+00))
0.0002225     	((-6.307468e-01 8.123216e+00 1.361646e+00) (-3.154920e-03 2.252982e-01 -9.764074e-03) (0.000000e+00 0.000000e+00 0.000000e+00)) ((5.904413e+00 -1.378602e+01 8.746679e+01) (-3.030582e-01 9.602146e-02 2.281416e+00) (0.000000e+00 0.000000e+00 0.000000e+00))
0.000225      	((-6.215613e-01 8.116390e+00 1.347132e+00) (-3.046837e-03 2.254477e-01 -9.699472e-03) (0.000000e+00 0.000000e+00 0.000000e+00)) ((5.766824e+00 -1.363373e+01 8.730476e+01) (-3.025148e-01 9.549156e-02 2.281819e+00) (0.000000e+00 0.000000e+00 0.000000e+00))
0.0002275     	((-6.143869e-01 8.110066e+00 1.332959e+00) (-3.041894e-03 2.253707e-01 -9.634992e-03) (0.000000e+00 0.000000e+00 0.000000e+00)) ((5.632455e+00 -1.348706e+01 8.716790e+01) (-3.017368e-01 9.483728e-02 2.281000e+00) (0.000000e+00 0.000000e+00 0.000000e+00))
0.00023       	((-6.091272e-01 8.102738e+00 1.318778e+00) (-2.957797e-03 2.254921e-01 -9.605217e-03) (0.000000e+00 0.000000e+00 0.000000e+00)) ((5.499378e+00 -1.334232e+01 8.704060e+01) (-3.015005e-01 9.462471e-02 2.281358e+00) (0.000000e+00 0.000000e+00 0.000000e+00))
0.0002325     	((-6.036602e-01 8.097184e+00 1.306818e+00) (-3.111376e-03 2.251839e-01 -9.545594e-03) (0.000000e+00 0.000000e+00 0.000000e+00)) ((5.387053e+00 -1.321956e+01 8.692869e+01) (-3.005135e-01 9.384245e-02 2.279811e+00) (0.000000e+00 0.000000e+00 0.000000e+00))
0.000235      	((-5.982205e-01 8.090972e+00 1.296420e+00) (-2.884048e-03 2.254638e-01 -9.557863e-03) (0.000000e+00 0.000000e+00 0.000000e+00)) ((5.291337e+00 -1.311230e+01 8.681067e+01) (-3.008656e-01 9.420446e-02 2.280316e+00) (0.000000e+00 0.000000e+00 0.000000e+00))
0.0002375     	((-5.984487e-01 8.084518e+00 1.285974e+00) (-2.786427e-03 2.254625e-01 -9.565585e-03) (0.000000e+00 0.000000e+00 0.000000e+00)) ((5.195354e+00 -1.301027e+01 8.674768e+01) (-3.008838e-01 9.436987e-02 2.279318e+00) (0.000000e+00 0.000000e+00 0.000000e+00))
0.00024       	((-5.977629e-01 8.080599e+00 1.278049e+00) (-3.003458e-03 2.251508e-01 -9.519058e-03) (0.000000e+00 0.000000e+00 0.000000e+00)) ((5.122240e+00 -1.293232e+01 8.670067e+01) (-3.000039e-01 9.365850e-02 2.278353e+00) (0.000000e+00 0.000000e+00 0.000000e+00))
0.0002425     	((-5.967913e-01 8.076105e+00 1.272881e+00) (-2.737152e-03 2.253720e-01 -9.556495e-03) (0.000000e+00 0.000000e+00 0.000000e+00)) ((5.077439e+00 -1.288130e+01 8.664520e+01) (-3.005620e-01 9.430523e-02 2.277894e+00) (0.000000e+00 0.000000e+00 0.000000e+00))
0.000245      	((-6.024159e-01 8.070225e+00 1.266836e+00) (-2.684213e-03 2.254254e-01 -9.580253e-03) (0.000000e+00 0.000000e+00 0.000000e+00)) ((5.025136e+00 -1.282806e+01 8.664290e+01) (-3.007872e-01 9.459444e-02 2.277883e+00) (0.000000e+00 0.000000e+00 0.000000e+00))
0.0002475     	((-6.084554e-01 8.066203e+00 1.262992e+00) (-2.693479e-03 2.252993e-01 -9.578356e-03) (0.000000e+00 0.000000e+00 0.000000e+00)) ((4.992937e+00 -1.279696e+01 8.666325e+01) (-3.005791e-01 9.454911e-02 2.276713e+00) (0.000000e+00 0.000000e+00 0.000000e+00))
0.00025       	((-6.153395e-01 8.061343e+00 1.260197e+00) (-2.655709e-03 2.253729e-01 -9.597005e-03) (0.000000e+00 0.000000e+00 0.000000e+00)) ((4.972109e+00 -1.277688e+01 8.668409e+01) (-3.007759e-01 9.477202e-02 2.277056e+00) (0.000000e+00 0.000000e+00 0.000000e+00))
0.0002525     	((-6.213435e-01 8.057984e+00 1.259911e+00) (-2.857212e-03 2.250312e-01 -9.562936e-03) (0.000000e+00 0.000000e+00 0.000000e+00)) ((4.974831e+00 -1.278067e+01 8.671087e+01) (-3.000121e-01 9.419645e-02 2.275660e+00) (0.000000e+00 0.000000e+00 0.000000e+00))
0.000255      	((-6.271563e-01 8.053071e+00 1.260889e+00) (-2.701138e-03 2.252658e-01 -9.591286e-03) (0.000000e+00 0.000000e+00 0.000000e+00)) ((4.991799e+00 -1.279659e+01 8.672049e+01) (-3.004844e-01 9.464644e-02 2.276438e+00) (0.000000e+00 0.000000e+00 0.000000e+00))
0.0002575     	((-6.379676e-01 8.047219e+00 1.261335e+00) (-2.680527e-03 2.252449e-01 -9.611231e-03) (0.000000e+00 0.000000e+00 0.000000e+00)) ((5.004066e+00 -1.281214e+01 8.677146e+01) (-3.006148e-01 9.485692e-02 2.276034e+00) (0.000000e+00 0.000000e+00 0.000000e+00))
0.00026       	((-6.463485e-01 8.043647e+00 1.263637e+00) (-3.003808e-03 2.249421e-01 -9.569765e-03) (0.000000e+00 0.000000e+00 0.000000e+00)) ((5.032555e+00 -1.284362e+01 8.682050e+01) (-2.998034e-01 9.408989e-02 2.276238e+00) (0.000000e+00 0.000000e+00 0.000000e+00))
0.0002625     	((-6.514105e-01 8.039700e+00 1.268011e+00) (-2.805444e-03 2.251566e-01 -9.601705e-03) (0.000000e+00 0.000000e+00 0.000000e+00)) ((5.082031e+00 -1.289223e+01 8.683226e+01) (-3.003117e-01 9.461542e-02 2.276415e+00) (0.000000e+00 0.000000e+00 0.000000e+00))
0.000265      	((-6.600057e-01 8.034646e+00 1.270549e+00) (-2.828512e-03 2.252184e-01 -9.610828e-03) (0.000000e+00 0.000000e+00 0.000000e+00)) ((5.113879e+00 -1.292619e+01 8.686879e+01) (-3.004078e-01 9.468428e-02 2.277268e+00) (0.000000e+00 0.000000e+00 0.000000e+00))
0.0002675     	((-6.659542e-01 8.031945e+00 1.274321e+00) (-2.893928e-03 2.251296e-01 -9.592552e-03) (0.000000e+00 0.000000e+00 0.000000e+00)) ((5.155452e+00 -1.296987e+01 8.690168e+01) (-3.000817e-01 9.442186e-02 2.277051e+00) (0.000000e+00 0.000000e+00 0.000000e+00))
0.00027       	((-6.694723e-01 8.028951e+00 1.278439e+00) (-2.933391e-03 2.252084e-01 -9.589667e-03) (0.000000e+00 0.000000e+00 0.000000e+00)) ((5.200632e+00 -1.301462e+01 8.690706e+01) (-3.000733e-01 9.435288e-02 2.278236e+00) (0.000000e+00 0.000000e+00 0.000000e+00))
0.0002725     	((-6.686999e-01 8.027644e+00 1.284497e+00) (-3.242996e-03 2.247915e-01 -9.530700e-03) (0.000000e+00 0.000000e+00 0.000000e+00)) ((5.263373e+00 -1.307452e+01 8.688543e+01) (-2.989847e-01 9.341718e-02 2.277183e+00) (0.000000e+00 0.000000e+00 0.000000e+00))
0.000275      	((-6.645319e-01 8.025212e+00 1.291416e+00) (-3.074865e-03 2.250956e-01 -9.530639e-03) (0.000000e+00 0.000000e+00 0.000000e+00)) ((5.335833e+00 -1.313970e+01 8.681821e+01) (-2.992513e-01 9.360084e-02 2.278546e+00) (0.000000e+00 0.000000e+00 0.000000e+00))