# Forces      
# CofR        : (0.000000e+00 0.000000e+00 0.000000e+00)
# Time        forces(pressure viscous porous)	moments(pressure viscous porous)
2.5e-06       	((5.240190e-01 1.623377e+01 4.268073e-01) (-2.944584e-03 4.469542e-01 5.751918e-03) (0.000000e+00 0.000000e+00 0.000000e+00)) ((-9.702239e+00 -3.558464e+00 1.570825e+02) (-3.564938e-01 -6.103255e-02 4.490014e+00) (0.000000e+00 0.000000e+00 0.000000e+00))
5e-06         	((1.471023e-01 7.281177e+01 8.445524e-01) (1.932451e-03 6.280076e-01 -8.629788e-04) (0.000000e+00 0.000000e+00 0.000000e+00)) ((-5.190578e+01 -8.398732e+00 7.263976e+02) (-5.238697e-01 9.498717e-03 6.250558e+00) (0.000000e+00 0.000000e+00 0.000000e+00))
7.5e-06       	((-3.703204e+00 1.398734e+02 4.717522e+00) (-5.407279e-04 6.087669e-01 -1.017916e-02) (0.000000e+00 0.000000e+00 0.000000e+00)) ((-7.618266e+01 -5.150686e+01 1.435390e+03) (-5.883736e-01 9.850951e-02 6.082753e+00) (0.000000e+00 0.000000e+00 0.000000e+00))
1e-05         	((-8.634446e-01 8.305184e+01 -5.854464e+00) (-6.215768e-03 5.137975e-01 -3.913388e-02) (0.000000e+00 0.000000e+00 0.000000e+00)) ((-1.325111e+02 5.736179e+01 8.391401e+02) (-7.964230e-01 3.904394e-01 5.191563e+00) (0.000000e+00 0.000000e+00 0.000000e+00))
1.25e-05      	((3.235354e+00 2.370193e+01 -1.029976e+01) (4.313715e-03 6.322491e-01 4.866504e-02) (0.000000e+00 0.000000e+00 0.000000e+00)) ((-1.187236e+02 1.064247e+02 2.045784e+02) (4.400449e-02 -4.687545e-01 6.269993e+00) (0.000000e+00 0.000000e+00 0.000000e+00))
1.5e-05       	((1.214057e+00 2.870310e+01 4.029265e+00) (3.316372e-02 6.048987e-01 2.235544e-02) (0.000000e+00 0.000000e+00 0.000000e+00)) ((3.366271e+01 -3.811375e+01 2.741128e+02) (-2.093850e-01 -1.895288e-01 5.708089e+00) (0.000000e+00 0.000000e+00 0.000000e+00))
1.75e-05      	((-1.695038e+00 2.911138e+01 6.341637e+00) (2.564138e-02 4.489609e-01 -9.765986e-03) (0.000000e+00 0.000000e+00 0.000000e+00)) ((4.877321e+01 -6.388188e+01 3.077868e+02) (-4.615064e-01 1.165361e-01 4.227618e+00) (0.000000e+00 0.000000e+00 0.000000e+00))
2e-05         	((-2.542583e+00 2.874072e+01 5.415966e+00) (6.529271e-02 1.192730e-01 -1.699171e-01) (0.000000e+00 0.000000e+00 0.000000e+00)) ((3.215956e+01 -5.508987e+01 3.130107e+02) (-1.956008e+00 1.717759e+00 5.400213e-01) (0.000000e+00 0.000000e+00 0.000000e+00))
2.25e-05      	((-7.468929e-01 1.949787e+01 9.838831e-01) (2.267259e-02 2.022932e-01 -1.133411e-01) (0.000000e+00 0.000000e+00 0.000000e+00)) ((-9.394182e+00 -9.653567e+00 2.028760e+02) (-1.407976e+00 1.134250e+00 1.796363e+00) (0.000000e+00 0.000000e+00 0.000000e+00))
2.5e-05       	((5.215142e-01 8.251025e+00 -3.492955e+00) (-1.133471e-03 3.919580e-01 -2.411839e-02) (0.000000e+00 0.000000e+00 0.000000e+00)) ((-4.591324e+01 3.559453e+01 7.787063e+01) (-5.653554e-01 2.356244e-01 3.926280e+00) (0.000000e+00 0.000000e+00 0.000000e+00))
2.75e-05      	((3.426015e-01 5.459054e+00 -4.015434e+00) (-9.066983e-03 4.153057e-01 -1.212086e-02) (0.000000e+00 0.000000e+00 0.000000e+00)) ((-4.629408e+01 4.033682e+01 5.167444e+01) (-4.417720e-01 1.135952e-01 4.239036e+00) (0.000000e+00 0.000000e+00 0.000000e+00))
3e-05         	((-2.950879e-01 8.402298e+00 -1.893017e+00) (-9.513583e-03 4.424599e-01 3.108540e-03) (0.000000e+00 0.000000e+00 0.000000e+00)) ((-2.546037e+01 1.854041e+01 8.734503e+01) (-2.904276e-01 -3.658812e-02 4.514123e+00) (0.000000e+00 0.000000e+00 0.000000e+00))
3.25e-05      	((-4.833233e-01 1.270309e+01 7.920709e-01) (-5.297910e-03 4.370804e-01 1.796889e-02) (0.000000e+00 0.000000e+00 0.000000e+00)) ((-1.682977e+00 -8.309835e+00 1.320799e+02) (-1.358644e-01 -1.823204e-01 4.417856e+00) (0.000000e+00 0.000000e+00 0.000000e+00))
3.5e-05       	((-6.726370e-01 1.660939e+01 2.633439e+00) (-2.923230e-03 4.092015e-01 1.103136e-02) (0.000000e+00 0.000000e+00 0.000000e+00)) ((1.397858e+01 -2.643117e+01 1.729245e+02) (-1.966012e-01 -1.117124e-01 4.116180e+00) (0.000000e+00 0.000000e+00 0.000000e+00))
3.75e-05      	((-6.682787e-01 1.578713e+01 2.162944e+00) (1.069198e-04 3.646033e-01 -1.696901e-03) (0.000000e+00 0.000000e+00 0.000000e+00)) ((9.471304e+00 -2.144338e+01 1.646859e+02) (-3.093474e-01 1.640425e-02 3.641237e+00) (0.000000e+00 0.000000e+00 0.000000e+00))
4e-05         	((-5.110873e-01 1.307308e+01 8.801514e-01) (2.522248e-03 3.494966e-01 -1.176179e-02) (0.000000e+00 0.000000e+00 0.000000e+00)) ((-1.568951e+00 -8.520583e+00 1.360236e+02) (-4.028670e-01 1.174027e-01 3.466103e+00) (0.000000e+00 0.000000e+00 0.000000e+00))
4.25e-05      	((-4.245500e-01 1.039135e+01 -1.542668e-01) (9.879573e-04 3.605447e-01 -7.586466e-03) (0.000000e+00 0.000000e+00 0.000000e+00)) ((-1.024713e+01 1.701322e+00 1.083940e+02) (-3.614544e-01 7.494584e-02 3.591422e+00) (0.000000e+00 0.000000e+00 0.000000e+00))
4.5e-05       	((-4.528428e-01 1.000826e+01 -2.428525e-01) (-5.990059e-04 3.680996e-01 -3.798957e-03) (0.000000e+00 0.000000e+00 0.000000e+00)) ((-1.090382e+01 2.413186e+00 1.048349e+02) (-3.232187e-01 3.638510e-02 3.682594e+00) (0.000000e+00 0.000000e+00 0.000000e+00))
4.75e-05      	((-5.151179e-01 1.095925e+01 2.394814e-01) (2.573271e-04 3.748368e-01 -2.822874e-03) (0.000000e+00 0.000000e+00 0.000000e+00)) ((-6.793566e+00 -2.490233e+00 1.149182e+02) (-3.144939e-01 2.689381e-02 3.741018e+00) (0.000000e+00 0.000000e+00 0.000000e+00))
5e-05         	((-4.913358e-01 1.206425e+01 7.108369e-01) (-4.121057e-04 3.771693e-01 -3.026202e-04) (0.000000e+00 0.000000e+00 0.000000e+00)) ((-2.866895e+00 -7.149399e+00 1.256655e+02) (-2.900261e-01 1.726214e-03 3.770935e+00) (0.000000e+00 0.000000e+00 0.000000e+00))
5.25e-05      	((-4.761261e-01 1.259988e+01 1.004734e+00) (-1.079406e-03 3.686512e-01 -7.692472e-04) (0.000000e+00 0.000000e+00 0.000000e+00)) ((-2.267312e-01 -9.996090e+00 1.308252e+02) (-2.921745e-01 6.387644e-03 3.692846e+00) (0.000000e+00 0.000000e+00 0.000000e+00))
5.5e-05       	((-4.750155e-01 1.250539e+01 1.002179e+00) (-1.867196e-03 3.559862e-01 7.281795e-04) (0.000000e+00 0.000000e+00 0.000000e+00)) ((-1.111204e-01 -9.909940e+00 1.298530e+02) (-2.725597e-01 -8.551750e-03 3.574692e+00) (0.000000e+00 0.000000e+00 0.000000e+00))
5.75e-05      	((-4.713199e-01 1.212931e+01 9.252959e-01) (-2.202493e-03 3.521041e-01 -1.382580e-03) (0.000000e+00 0.000000e+00 0.000000e+00)) ((-5.835018e-01 -9.124785e+00 1.260522e+02) (-2.920837e-01 1.251986e-02 3.539398e+00) (0.000000e+00 0.000000e+00 0.000000e+00))
6e-05         	((-4.559116e-01 1.181275e+01 8.598727e-01) (-2.039634e-03 3.579831e-01 -3.658854e-03) (0.000000e+00 0.000000e+00 0.000000e+00)) ((-1.044837e+00 -8.481567e+00 1.227305e+02) (-3.166130e-01 3.529521e-02 3.596273e+00) (0.000000e+00 0.000000e+00 0.000000e+00))
6.25e-05      	((-4.459575e-01 1.173498e+01 8.460675e-01) (-1.530359e-03 3.621406e-01 -5.142557e-03) (0.000000e+00 0.000000e+00 0.000000e+00)) ((-1.158660e+00 -8.362856e+00 1.218475e+02) (-3.326443e-01 5.025805e-02 3.632541e+00) (0.000000e+00 0.000000e+00 0.000000e+00))
6.5e-05       	((-4.803654e-01 1.174028e+01 8.762219e-01) (-1.524228e-03 3.675255e-01 -7.074717e-03) (0.000000e+00 0.000000e+00 0.000000e+00)) ((-9.254314e-01 -8.689568e+00 1.222443e+02) (-3.537914e-01 6.949945e-02 3.686142e+00) (0.000000e+00 0.000000e+00 0.000000e+00))
6.75e-05      	((-5.157564e-01 1.190516e+01 9.206666e-01) (-1.228991e-03 3.619629e-01 -6.629888e-03) (0.000000e+00 0.000000e+00 0.000000e+00)) ((-6.160154e-01 -9.147803e+00 1.242407e+02) (-3.473299e-01 6.523532e-02 3.627767e+00) (0.000000e+00 0.000000e+00 0.000000e+00))
7e-05         	((-5.670083e-01 1.197838e+01 9.709923e-01) (-1.221915e-03 3.572951e-01 -6.338158e-03) (0.000000e+00 0.000000e+00 0.000000e+00)) ((-1.893182e-01 -9.666027e+00 1.254839e+02) (-3.427627e-01 6.243253e-02 3.581226e+00) (0.000000e+00 0.000000e+00 0.000000e+00))
7.25e-05      	((-6.089534e-01 1.193822e+01 1.024111e+00) (-1.100172e-03 3.548473e-01 -6.487042e-03) (0.000000e+00 0.000000e+00 0.000000e+00)) ((3.396100e-01 -1.021100e+01 1.255033e+02) (-3.434922e-01 6.407681e-02 3.555611e+00) (0.000000e+00 0.000000e+00 0.000000e+00))
7.5e-05       	((-6.140211e-01 1.185960e+01 1.075948e+00) (-9.078045e-04 3.531981e-01 -6.864534e-03) (0.000000e+00 0.000000e+00 0.000000e+00)) ((8.884465e-01 -1.073502e+01 1.247664e+02) (-3.468068e-01 6.801002e-02 3.537217e+00) (0.000000e+00 0.000000e+00 0.000000e+00))
7.75e-05      	((-5.972669e-01 1.178880e+01 1.128273e+00) (-1.016272e-03 3.535082e-01 -7.211013e-03) (0.000000e+00 0.000000e+00 0.000000e+00)) ((1.437338e+00 -1.125935e+01 1.238875e+02) (-3.504675e-01 7.150049e-02 3.541387e+00) (0.000000e+00 0.000000e+00 0.000000e+00))
8e-05         	((-5.835557e-01 1.177207e+01 1.176101e+00) (-1.159046e-03 3.534806e-01 -7.498652e-03) (0.000000e+00 0.000000e+00 0.000000e+00)) ((1.909258e+00 -1.173991e+01 1.235794e+02) (-3.534550e-01 7.437907e-02 3.542550e+00) (0.000000e+00 0.000000e+00 0.000000e+00))
8.25e-05      	((-5.874891e-01 1.179591e+01 1.224028e+00) (-1.275298e-03 3.531157e-01 -7.819900e-03) (0.000000e+00 0.000000e+00 0.000000e+00)) ((2.356378e+00 -1.222713e+01 1.238552e+02) (-3.567404e-01 7.758778e-02 3.540100e+00) (0.000000e+00 0.000000e+00 0.000000e+00))
8.5e-05       	((-5.999755e-01 1.183151e+01 1.275822e+00) (-1.352891e-03 3.524518e-01 -8.032979e-03) (0.000000e+00 0.000000e+00 0.000000e+00)) ((2.834010e+00 -1.275628e+01 1.243347e+02) (-3.588821e-01 7.972644e-02 3.534285e+00) (0.000000e+00 0.000000e+00 0.000000e+00))
8.75e-05      	((-6.053263e-01 1.186699e+01 1.329192e+00) (-1.465725e-03 3.519236e-01 -8.179910e-03) (0.000000e+00 0.000000e+00 0.000000e+00)) ((3.329978e+00 -1.330002e+01 1.247400e+02) (-3.604402e-01 8.118974e-02 3.530178e+00) (0.000000e+00 0.000000e+00 0.000000e+00))
9e-05         	((-6.018267e-01 1.189373e+01 1.381168e+00) (-1.471033e-03 3.513900e-01 -8.290142e-03) (0.000000e+00 0.000000e+00 0.000000e+00)) ((3.820066e+00 -1.382861e+01 1.249672e+02) (-3.616175e-01 8.232579e-02 3.524922e+00) (0.000000e+00 0.000000e+00 0.000000e+00))
9.25e-05      	((-5.893736e-01 1.190979e+01 1.427468e+00) (-1.399916e-03 3.508980e-01 -8.377960e-03) (0.000000e+00 0.000000e+00 0.000000e+00)) ((4.261585e+00 -1.429900e+01 1.249962e+02) (-3.625588e-01 8.326392e-02 3.519300e+00) (0.000000e+00 0.000000e+00 0.000000e+00))
9.5e-05       	((-5.737681e-01 1.191650e+01 1.464951e+00) (-1.291710e-03 3.504443e-01 -8.429996e-03) (0.000000e+00 0.000000e+00 0.000000e+00)) ((4.620655e+00 -1.468139e+01 1.248996e+02) (-3.631277e-01 8.385198e-02 3.513679e+00) (0.000000e+00 0.000000e+00 0.000000e+00))
9.75e-05      	((-5.597810e-01 1.191575e+01 1.492624e+00) (-1.191703e-03 3.500253e-01 -8.455637e-03) (0.000000e+00 0.000000e+00 0.000000e+00)) ((4.886391e+00 -1.496681e+01 1.247455e+02) (-3.634194e-01 8.416323e-02 3.508485e+00) (0.000000e+00 0.000000e+00 0.000000e+00))
0.0001        	((-5.512171e-01 1.190971e+01 1.511330e+00) (-1.128266e-03 3.496493e-01 -8.453442e-03) (0.000000e+00 0.000000e+00 0.000000e+00)) ((5.066900e+00 -1.516436e+01 1.245949e+02) (-3.634293e-01 8.417041e-02 3.504095e+00) (0.000000e+00 0.000000e+00 0.000000e+00))
0.0001025     	((-5.489839e-01 1.190108e+01 1.522633e+00) (-1.107094e-03 3.493318e-01 -8.430733e-03) (0.000000e+00 0.000000e+00 0.000000e+00)) ((5.177119e+00 -1.528922e+01 1.244845e+02) (-3.632395e-01 8.394652e-02 3.500723e+00) (0.000000e+00 0.000000e+00 0.000000e+00))
0.000105      	((-5.521151e-01 1.189223e+01 1.527962e+00) (-1.119101e-03 3.490857e-01 -8.401546e-03) (0.000000e+00 0.000000e+00 0.000000e+00)) ((5.230147e+00 -1.535439e+01 1.244289e+02) (-3.630001e-01 8.364033e-02 3.498405e+00) (0.000000e+00 0.000000e+00 0.000000e+00))
0.0001075     	((-5.587325e-01 1.188434e+01 1.528362e+00) (-1.160890e-03 3.488488e-01 -8.333509e-03) (0.000000e+00 0.000000e+00 0.000000e+00)) ((5.235425e+00 -1.536886e+01 1.244205e+02) (-3.623370e-01 8.292821e-02 3.496487e+00) (0.000000e+00 0.000000e+00 0.000000e+00))
0.00011       	((-5.667918e-01 1.187773e+01 1.524882e+00) (-1.210264e-03 3.485913e-01 -8.237497e-03) (0.000000e+00 0.000000e+00 0.000000e+00)) ((5.202674e+00 -1.534204e+01 1.244413e+02) (-3.613460e-01 8.193460e-02 3.494445e+00) (0.000000e+00 0.000000e+00 0.000000e+00))
0.0001125     	((-5.735093e-01 1.187146e+01 1.517329e+00) (-1.251834e-03 3.483543e-01 -8.172721e-03) (0.000000e+00 0.000000e+00 0.000000e+00)) ((5.129961e+00 -1.527065e+01 1.244527e+02) (-3.606696e-01 8.126008e-02 3.492529e+00) (0.000000e+00 0.000000e+00 0.000000e+00))
0.000115      	((-5.759285e-01 1.186456e+01 1.506490e+00) (-1.279760e-03 3.480737e-01 -8.062267e-03) (0.000000e+00 0.000000e+00 0.000000e+00)) ((5.025548e+00 -1.516157e+01 1.244138e+02) (-3.594810e-01 8.014171e-02 3.490036e+00) (0.000000e+00 0.000000e+00 0.000000e+00))
0.0001175     	((-5.711135e-01 1.185603e+01 1.492651e+00) (-1.288890e-03 3.478318e-01 -8.003090e-03) (0.000000e+00 0.000000e+00 0.000000e+00)) ((4.892670e+00 -1.501687e+01 1.242841e+02) (-3.588318e-01 7.955119e-02 3.487735e+00) (0.000000e+00 0.000000e+00 0.000000e+00))
0.00012       	((-5.577039e-01 1.184584e+01 1.478125e+00) (-1.283671e-03 3.475225e-01 -7.872940e-03) (0.000000e+00 0.000000e+00 0.000000e+00)) ((4.754534e+00 -1.486011e+01 1.240484e+02) (-3.573973e-01 7.826127e-02 3.484606e+00) (0.000000e+00 0.000000e+00 0.000000e+00))
0.0001225     	((-5.355219e-01 1.183397e+01 1.464096e+00) (-1.225244e-03 3.472987e-01 -7.811478e-03) (0.000000e+00 0.000000e+00 0.000000e+00)) ((4.622826e+00 -1.470386e+01 1.237044e+02) (-3.567132e-01 7.769637e-02 3.481780e+00) (0.000000e+00 0.000000e+00 0.000000e+00))
0.000125      	((-5.066288e-01 1.182101e+01 1.452510e+00) (-1.160154e-03 3.470077e-01 -7.679653e-03) (0.000000e+00 0.000000e+00 0.000000e+00)) ((4.516681e+00 -1.456962e+01 1.232792e+02) (-3.552474e-01 7.642907e-02 3.478203e+00) (0.000000e+00 0.000000e+00 0.000000e+00))
0.0001275     	((-4.725273e-01 1.180710e+01 1.443413e+00) (-1.029735e-03 3.468047e-01 -7.603140e-03) (0.000000e+00 0.000000e+00 0.000000e+00)) ((4.436418e+00 -1.445874e+01 1.227896e+02) (-3.543969e-01 7.576006e-02 3.474831e+00) (0.000000e+00 0.000000e+00 0.000000e+00))
0.00013       	((-4.364741e-01 1.179279e+01 1.437064e+00) (-9.045609e-04 3.465200e-01 -7.458907e-03) (0.000000e+00 0.000000e+00 0.000000e+00)) ((4.384380e+00 -1.437584e+01 1.222750e+02) (-3.527805e-01 7.440369e-02 3.470688e+00) (0.000000e+00 0.000000e+00 0.000000e+00))
0.0001325     	((-4.006948e-01 1.177843e+01 1.432095e+00) (-7.271501e-04 3.463277e-01 -7.389696e-03) (0.000000e+00 0.000000e+00 0.000000e+00)) ((4.346421e+00 -1.430791e+01 1.217620e+02) (-3.519858e-01 7.383302e-02 3.466932e+00) (0.000000e+00 0.000000e+00 0.000000e+00))
0.000135      	((-3.682988e-01 1.176491e+01 1.428312e+00) (-5.714120e-04 3.460548e-01 -7.267730e-03) (0.000000e+00 0.000000e+00 0.000000e+00)) ((4.319926e+00 -1.425438e+01 1.212920e+02) (-3.505791e-01 7.271512e-02 3.462588e+00) (0.000000e+00 0.000000e+00 0.000000e+00))
0.0001375     	((-3.413152e-01 1.175158e+01 1.424531e+00) (-3.979138e-04 3.458923e-01 -7.222064e-03) (0.000000e+00 0.000000e+00 0.000000e+00)) ((4.293490e+00 -1.420394e+01 1.208797e+02) (-3.500276e-01 7.237280e-02 3.459168e+00) (0.000000e+00 0.000000e+00 0.000000e+00))
0.00014       	((-3.214823e-01 1.173870e+01 1.420966e+00) (-2.753991e-04 3.456722e-01 -7.124442e-03) (0.000000e+00 0.000000e+00 0.000000e+00)) ((4.269228e+00 -1.415927e+01 1.205462e+02) (-3.488969e-01 7.147350e-02 3.455692e+00) (0.000000e+00 0.000000e+00 0.000000e+00))
0.0001425     	((-3.085510e-01 1.172664e+01 1.417012e+00) (-1.319047e-04 3.455682e-01 -7.119562e-03) (0.000000e+00 0.000000e+00 0.000000e+00)) ((4.240532e+00 -1.411343e+01 1.202929e+02) (-3.487871e-01 7.152285e-02 3.453170e+00) (0.000000e+00 0.000000e+00 0.000000e+00))
0.000145      	((-3.025117e-01 1.171636e+01 1.413537e+00) (-3.327383e-05 3.454019e-01 -7.078486e-03) (0.000000e+00 0.000000e+00 0.000000e+00)) ((4.215291e+00 -1.407513e+01 1.201293e+02) (-3.482492e-01 7.118272e-02 3.450490e+00) (0.000000e+00 0.000000e+00 0.000000e+00))
0.0001475     	((-3.016017e-01 1.170800e+01 1.410307e+00) (6.436749e-05 3.453273e-01 -7.114587e-03) (0.000000e+00 0.000000e+00 0.000000e+00)) ((4.190812e+00 -1.404083e+01 1.200386e+02) (-3.485552e-01 7.162137e-02 3.448745e+00) (0.000000e+00 0.000000e+00 0.000000e+00))
0.00015       	((-3.051196e-01 1.170195e+01 1.408702e+00) (1.124039e-04 3.451833e-01 -7.088477e-03) (0.000000e+00 0.000000e+00 0.000000e+00)) ((4.180813e+00 -1.402452e+01 1.200170e+02) (-3.481662e-01 7.140523e-02 3.446817e+00) (0.000000e+00 0.000000e+00 0.000000e+00))
0.0001525     	((-3.110991e-01 1.169752e+01 1.408480e+00) (1.846586e-04 3.451432e-01 -7.144123e-03) (0.000000e+00 0.000000e+00 0.000000e+00)) ((4.183315e+00 -1.402297e+01 1.200373e+02) (-3.486848e-01 7.202866e-02 3.445685e+00) (0.000000e+00 0.000000e+00 0.000000e+00))
0.000155      	((-3.184745e-01 1.169451e+01 1.410000e+00) (2.228962e-04 3.450540e-01 -7.165139e-03) (0.000000e+00 0.000000e+00 0.000000e+00)) ((4.202152e+00 -1.403971e+01 1.200858e+02) (-3.488102e-01 7.228008e-02 3.444408e+00) (0.000000e+00 0.000000e+00 0.000000e+00))
0.0001575     	((-3.253472e-01 1.169232e+01 1.412862e+00) (2.672926e-04 3.450053e-01 -7.220811e-03) (0.000000e+00 0.000000e+00 0.000000e+00)) ((4.233666e+00 -1.406991e+01 1.201368e+02) (-3.493219e-01 7.288104e-02 3.443472e+00) (0.000000e+00 0.000000e+00 0.000000e+00))
0.00016       	((-3.313167e-01 1.169091e+01 1.417473e+00) (2.829304e-04 3.448878e-01 -7.213471e-03) (0.000000e+00 0.000000e+00 0.000000e+00)) ((4.282025e+00 -1.411785e+01 1.201853e+02) (-3.491428e-01 7.282724e-02 3.442138e+00) (0.000000e+00 0.000000e+00 0.000000e+00))
0.0001625     	((-3.358563e-01 1.168976e+01 1.422999e+00) (3.255744e-04 3.448549e-01 -7.276957e-03) (0.000000e+00 0.000000e+00 0.000000e+00)) ((4.339143e+00 -1.417495e+01 1.202210e+02) (-3.497538e-01 7.349843e-02 3.441370e+00) (0.000000e+00 0.000000e+00 0.000000e+00))
0.000165      	((-3.391757e-01 1.168893e+01 1.429464e+00) (3.506169e-04 3.447419e-01 -7.284069e-03) (0.000000e+00 0.000000e+00 0.000000e+00)) ((4.405248e+00 -1.424177e+01 1.202463e+02) (-3.497363e-01 7.358854e-02 3.439977e+00) (0.000000e+00 0.000000e+00 0.000000e+00))
0.0001675     	((-3.409516e-01 1.168816e+01 1.435832e+00) (4.047915e-04 3.447027e-01 -7.343226e-03) (0.000000e+00 0.000000e+00 0.000000e+00)) ((4.470062e+00 -1.430750e+01 1.202556e+02) (-3.503109e-01 7.421882e-02 3.439024e+00) (0.000000e+00 0.000000e+00 0.000000e+00))
0.00017       	((-3.419885e-01 1.168779e+01 1.441946e+00) (4.313155e-04 3.445727e-01 -7.331785e-03) (0.000000e+00 0.000000e+00 0.000000e+00)) ((4.531828e+00 -1.437098e+01 1.202608e+02) (-3.501032e-01 7.411901e-02 3.437441e+00) (0.000000e+00 0.000000e+00 0.000000e+00))
0.0001725     	((-3.430378e-01 1.168767e+01 1.447266e+00) (4.854514e-04 3.445129e-01 -7.372561e-03) (0.000000e+00 0.000000e+00 0.000000e+00)) ((4.585221e+00 -1.442701e+01 1.202681e+02) (-3.504875e-01 7.456137e-02 3.436279e+00) (0.000000e+00 0.000000e+00 0.000000e+00))
0.000175      	((-3.446571e-01 1.168774e+01 1.451474e+00) (5.035626e-04 3.444040e-01 -7.385028e-03) (0.000000e+00 0.000000e+00 0.000000e+00)) ((4.627139e+00 -1.447247e+01 1.202830e+02) (-3.505490e-01 7.469156e-02 3.434992e+00) (0.000000e+00 0.000000e+00 0.000000e+00))
0.0001775     	((-3.466116e-01 1.168786e+01 1.454293e+00) (5.316621e-04 3.443196e-01 -7.405021e-03) (0.000000e+00 0.000000e+00 0.000000e+00)) ((4.654927e+00 -1.450406e+01 1.203019e+02) (-3.507095e-01 7.490549e-02 3.433849e+00) (0.000000e+00 0.000000e+00 0.000000e+00))
0.00018       	((-3.493079e-01 1.168815e+01 1.455613e+00) (5.273261e-04 3.442005e-01 -7.396707e-03) (0.000000e+00 0.000000e+00 0.000000e+00)) ((4.667410e+00 -1.452075e+01 1.203305e+02) (-3.505552e-01 7.481295e-02 3.432693e+00) (0.000000e+00 0.000000e+00 0.000000e+00))
0.0001825     	((-3.525779e-01 1.168856e+01 1.455099e+00) (5.348788e-04 3.441417e-01 -7.430950e-03) (0.000000e+00 0.000000e+00 0.000000e+00)) ((4.661267e+00 -1.451885e+01 1.203666e+02) (-3.508786e-01 7.515771e-02 3.432021e+00) (0.000000e+00 0.000000e+00 0.000000e+00))
0.000185      	((-3.564140e-01 1.168924e+01 1.453117e+00) (5.097244e-04 3.440368e-01 -7.420812e-03) (0.000000e+00 0.000000e+00 0.000000e+00)) ((4.640086e+00 -1.450188e+01 1.204118e+02) (-3.507138e-01 7.503580e-02 3.431224e+00) (0.000000e+00 0.000000e+00 0.000000e+00))
0.0001875     	((-3.603983e-01 1.169002e+01 1.449700e+00) (5.008046e-04 3.440037e-01 -7.458537e-03) (0.000000e+00 0.000000e+00 0.000000e+00)) ((4.604305e+00 -1.446981e+01 1.204603e+02) (-3.510909e-01 7.540827e-02 3.430986e+00) (0.000000e+00 0.000000e+00 0.000000e+00))
0.00019       	((-3.646383e-01 1.169074e+01 1.445080e+00) (4.668689e-04 3.439365e-01 -7.459252e-03) (0.000000e+00 0.000000e+00 0.000000e+00)) ((4.556486e+00 -1.442515e+01 1.205112e+02) (-3.510612e-01 7.539441e-02 3.430664e+00) (0.000000e+00 0.000000e+00 0.000000e+00))
0.0001925     	((-3.687721e-01 1.169120e+01 1.439349e+00) (4.448701e-04 3.439122e-01 -7.474888e-03) (0.000000e+00 0.000000e+00 0.000000e+00)) ((4.497707e+00 -1.436870e+01 1.205589e+02) (-3.512107e-01 7.554152e-02 3.430652e+00) (0.000000e+00 0.000000e+00 0.000000e+00))
0.000195      	((-3.726128e-01 1.169162e+01 1.433003e+00) (3.987656e-04 3.438374e-01 -7.442650e-03) (0.000000e+00 0.000000e+00 0.000000e+00)) ((4.432826e+00 -1.430546e+01 1.206035e+02) (-3.508283e-01 7.519306e-02 3.430383e+00) (0.000000e+00 0.000000e+00 0.000000e+00))
0.0001975     	((-3.758729e-01 1.169202e+01 1.426167e+00) (3.764141e-04 3.438198e-01 -7.452979e-03) (0.000000e+00 0.000000e+00 0.000000e+00)) ((4.363075e+00 -1.423664e+01 1.206422e+02) (-3.509182e-01 7.529059e-02 3.430446e+00) (0.000000e+00 0.000000e+00 0.000000e+00))
0.0002        	((-3.785142e-01 1.169243e+01 1.419104e+00) (3.373209e-04 3.437641e-01 -7.437942e-03) (0.000000e+00 0.000000e+00 0.000000e+00)) ((4.291095e+00 -1.416505e+01 1.206747e+02) (-3.507165e-01 7.512272e-02 3.430298e+00) (0.000000e+00 0.000000e+00 0.000000e+00))
0.0002025     	((-3.804018e-01 1.169277e+01 1.411875e+00) (3.146694e-04 3.437333e-01 -7.432314e-03) (0.000000e+00 0.000000e+00 0.000000e+00)) ((4.217569e+00 -1.409135e+01 1.206987e+02) (-3.506268e-01 7.506281e-02 3.430233e+00) (0.000000e+00 0.000000e+00 0.000000e+00))
0.000205      	((-3.817554e-01 1.169312e+01 1.404678e+00) (2.804183e-04 3.436618e-01 -7.391766e-03) (0.000000e+00 0.000000e+00 0.000000e+00)) ((4.144459e+00 -1.401788e+01 1.207173e+02) (-3.501470e-01 7.464492e-02 3.429880e+00) (0.000000e+00 0.000000e+00 0.000000e+00))
0.0002075     	((-3.824279e-01 1.169337e+01 1.397373e+00) (2.644530e-04 3.436323e-01 -7.389929e-03) (0.000000e+00 0.000000e+00 0.000000e+00)) ((4.070414e+00 -1.394315e+01 1.207276e+02) (-3.500904e-01 7.462805e-02 3.429760e+00) (0.000000e+00 0.000000e+00 0.000000e+00))
0.00021       	((-3.825615e-01 1.169365e+01 1.390312e+00) (2.355140e-04 3.435424e-01 -7.335707e-03) (0.000000e+00 0.000000e+00 0.000000e+00)) ((3.998903e+00 -1.387088e+01 1.207326e+02) (-3.494522e-01 7.407701e-02 3.429167e+00) (0.000000e+00 0.000000e+00 0.000000e+00))
0.0002125     	((-3.822074e-01 1.169391e+01 1.383297e+00) (2.329228e-04 3.435080e-01 -7.326799e-03) (0.000000e+00 0.000000e+00 0.000000e+00)) ((3.927950e+00 -1.379911e+01 1.207321e+02) (-3.493158e-01 7.399899e-02 3.428860e+00) (0.000000e+00 0.000000e+00 0.000000e+00))
0.000215      	((-3.816096e-01 1.169430e+01 1.376433e+00) (2.150778e-04 3.434205e-01 -7.283320e-03) (0.000000e+00 0.000000e+00 0.000000e+00)) ((3.858474e+00 -1.372906e+01 1.207303e+02) (-3.487848e-01 7.356276e-02 3.428174e+00) (0.000000e+00 0.000000e+00 0.000000e+00))
0.0002175     	((-3.806849e-01 1.169483e+01 1.369550e+00) (2.169162e-04 3.433719e-01 -7.271466e-03) (0.000000e+00 0.000000e+00 0.000000e+00)) ((3.788738e+00 -1.365889e+01 1.207263e+02) (-3.486044e-01 7.345752e-02 3.427677e+00) (0.000000e+00 0.000000e+00 0.000000e+00))
0.00022       	((-3.796347e-01 1.169565e+01 1.362998e+00) (1.993123e-04 3.432596e-01 -7.208287e-03) (0.000000e+00 0.000000e+00 0.000000e+00)) ((3.722171e+00 -1.359220e+01 1.207237e+02) (-3.478517e-01 7.282338e-02 3.426741e+00) (0.000000e+00 0.000000e+00 0.000000e+00))
0.0002225     	((-3.778762e-01 1.169624e+01 1.356896e+00) (2.099944e-04 3.432102e-01 -7.199950e-03) (0.000000e+00 0.000000e+00 0.000000e+00)) ((3.660472e+00 -1.352944e+01 1.207116e+02) (-3.477047e-01 7.275949e-02 3.426143e+00) (0.000000e+00 0.000000e+00 0.000000e+00))
0.000225      	((-3.758542e-01 1.169620e+01 1.350960e+00) (2.035195e-04 3.431316e-01 -7.176351e-03) (0.000000e+00 0.000000e+00 0.000000e+00)) ((3.601153e+00 -1.346811e+01 1.206904e+02) (-3.473816e-01 7.252930e-02 3.425429e+00) (0.000000e+00 0.000000e+00 0.000000e+00))
0.0002275     	((-3.740671e-01 1.169565e+01 1.344990e+00) (2.132713e-04 3.430719e-01 -7.152874e-03) (0.000000e+00 0.000000e+00 0.000000e+00)) ((3.542058e+00 -1.340667e+01 1.206666e+02) (-3.470755e-01 7.231302e-02 3.424738e+00) (0.000000e+00 0.000000e+00 0.000000e+00))
0.00023       	((-3.728018e-01 1.169498e+01 1.338969e+00) (2.040098e-04 3.429974e-01 -7.129435e-03) (0.000000e+00 0.000000e+00 0.000000e+00)) ((3.482625e+00 -1.334517e+01 1.206467e+02) (-3.467583e-01 7.208131e-02 3.424093e+00) (0.000000e+00 0.000000e+00 0.000000e+00))
0.0002325     	((-3.715773e-01 1.169431e+01 1.333039e+00) (2.100792e-04 3.429486e-01 -7.122738e-03) (0.000000e+00 0.000000e+00 0.000000e+00)) ((3.424116e+00 -1.328451e+01 1.206274e+02) (-3.466314e-01 7.202849e-02 3.423550e+00) (0.000000e+00 0.000000e+00 0.000000e+00))
0.000235      	((-3.703830e-01 1.169372e+01 1.327408e+00) (1.978911e-04 3.428671e-01 -7.090912e-03) (0.000000e+00 0.000000e+00 0.000000e+00)) ((3.368581e+00 -1.322673e+01 1.206091e+02) (-3.462234e-01 7.170966e-02 3.422863e+00) (0.000000e+00 0.000000e+00 0.000000e+00))
0.0002375     	((-3.689343e-01 1.169299e+01 1.321890e+00) (2.035637e-04 3.428371e-01 -7.102249e-03) (0.000000e+00 0.000000e+00 0.000000e+00)) ((3.314294e+00 -1.316970e+01 1.205869e+02) (-3.462937e-01 7.183600e-02 3.422511e+00) (0.000000e+00 0.000000e+00 0.000000e+00))
0.00024       	((-3.673983e-01 1.169221e+01 1.316681e+00) (1.884203e-04 3.427519e-01 -7.065512e-03) (0.000000e+00 0.000000e+00 0.000000e+00)) ((3.263179e+00 -1.311560e+01 1.205634e+02) (-3.458320e-01 7.146535e-02 3.421819e+00) (0.000000e+00 0.000000e+00 0.000000e+00))
0.0002425     	((-3.657911e-01 1.169132e+01 1.311530e+00) (1.997385e-04 3.427321e-01 -7.077665e-03) (0.000000e+00 0.000000e+00 0.000000e+00)) ((3.212710e+00 -1.306193e+01 1.205381e+02) (-3.459175e-01 7.160411e-02 3.421511e+00) (0.000000e+00 0.000000e+00 0.000000e+00))
0.000245      	((-3.642320e-01 1.169044e+01 1.306446e+00) (1.892264e-04 3.426707e-01 -7.066202e-03) (0.000000e+00 0.000000e+00 0.000000e+00)) ((3.162858e+00 -1.300893e+01 1.205134e+02) (-3.457296e-01 7.148936e-02 3.421008e+00) (0.000000e+00 0.000000e+00 0.000000e+00))
0.0002475     	((-3.624089e-01 1.168957e+01 1.301368e+00) (1.982390e-04 3.426460e-01 -7.074807e-03) (0.000000e+00 0.000000e+00 0.000000e+00)) ((3.113001e+00 -1.295577e+01 1.204861e+02) (-3.457739e-01 7.159045e-02 3.420675e+00) (0.000000e+00 0.000000e+00 0.000000e+00))
0.00025       	((-3.604311e-01 1.168887e+01 1.296442e+00) (1.852011e-04 3.425756e-01 -7.047087e-03) (0.000000e+00 0.000000e+00 0.000000e+00)) ((3.064485e+00 -1.290400e+01 1.204590e+02) (-3.454129e-01 7.131074e-02 3.420109e+00) (0.000000e+00 0.000000e+00 0.000000e+00))
0.0002525     	((-3.581676e-01 1.168827e+01 1.291454e+00) (1.968571e-04 3.425655e-01 -7.066676e-03) (0.000000e+00 0.000000e+00 0.000000e+00)) ((3.015187e+00 -1.285137e+01 1.204299e+02) (-3.455792e-01 7.152298e-02 3.419893e+00) (0.000000e+00 0.000000e+00 0.000000e+00))
0.000255      	((-3.557010e-01 1.168781e+01 1.286479e+00) (1.889490e-04 3.425106e-01 -7.054305e-03) (0.000000e+00 0.000000e+00 0.000000e+00)) ((2.965837e+00 -1.279871e+01 1.204002e+02) (-3.453854e-01 7.139997e-02 3.419430e+00) (0.000000e+00 0.000000e+00 0.000000e+00))
0.0002575     	((-3.528319e-01 1.168732e+01 1.281246e+00) (1.974018e-04 3.425028e-01 -7.079814e-03) (0.000000e+00 0.000000e+00 0.000000e+00)) ((2.913844e+00 -1.274314e+01 1.203662e+02) (-3.456130e-01 7.166811e-02 3.419271e+00) (0.000000e+00 0.000000e+00 0.000000e+00))
0.00026       	((-3.496633e-01 1.168689e+01 1.276059e+00) (1.859714e-04 3.424348e-01 -7.049583e-03) (0.000000e+00 0.000000e+00 0.000000e+00)) ((2.862248e+00 -1.268780e+01 1.203296e+02) (-3.452270e-01 7.136337e-02 3.418712e+00) (0.000000e+00 0.000000e+00 0.000000e+00))
0.0002625     	((-3.462725e-01 1.168632e+01 1.270634e+00) (1.993284e-04 3.424338e-01 -7.076075e-03) (0.000000e+00 0.000000e+00 0.000000e+00)) ((2.808314e+00 -1.262988e+01 1.202896e+02) (-3.454693e-01 7.164483e-02 3.418573e+00) (0.000000e+00 0.000000e+00 0.000000e+00))
0.000265      	((-3.427002e-01 1.168559e+01 1.264977e+00) (1.935804e-04 3.423950e-01 -7.084872e-03) (0.000000e+00 0.000000e+00 0.000000e+00)) ((2.752163e+00 -1.256949e+01 1.202462e+02) (-3.455017e-01 7.173412e-02 3.418250e+00) (0.000000e+00 0.000000e+00 0.000000e+00))
0.0002675     	((-3.387088e-01 1.168464e+01 1.259195e+00) (2.031922e-04 3.423747e-01 -7.096555e-03) (0.000000e+00 0.000000e+00 0.000000e+00)) ((2.694917e+00 -1.250749e+01 1.201962e+02) (-3.455778e-01 7.186451e-02 3.417957e+00) (0.000000e+00 0.000000e+00 0.000000e+00))
0.00027       	((-3.345631e-01 1.168353e+01 1.253336e+00) (1.978183e-04 3.423291e-01 -7.094691e-03) (0.000000e+00 0.000000e+00 0.000000e+00)) ((2.637021e+00 -1.244460e+01 1.201433e+02) (-3.454957e-01 7.184781e-02 3.417564e+00) (0.000000e+00 0.000000e+00 0.000000e+00))
0.0002725     	((-3.300559e-01 1.168220e+01 1.247280e+00) (2.070811e-04 3.423144e-01 -7.121051e-03) (0.000000e+00 0.000000e+00 0.000000e+00)) ((2.577295e+00 -1.237945e+01 1.200845e+02) (-3.457238e-01 7.212498e-02 3.417332e+00) (0.000000e+00 0.000000e+00 0.000000e+00))
0.000275      	((-3.254108e-01 1.168078e+01 1.241373e+00) (2.059567e-04 3.422501e-01 -7.101055e-03) (0.000000e+00 0.000000e+00 0.000000e+00)) ((2.519156e+00 -1.231571e+01 1.200235e+02) (-3.454413e-01 7.193142e-02 3.416712e+00) (0.000000e+00 0.000000e+00 0.000000e+00))