# Forces      
# CofR        : (0.000000e+00 0.000000e+00 0.000000e+00)
# Time        forces(pressure viscous porous)	moments(pressure viscous porous)
2.5e-06       	((7.421405e-01 3.140977e+01 1.726457e+00) (-1.567453e-03 6.967862e-01 1.434620e-02) (0.000000e+00 0.000000e+00 0.000000e+00)) ((-1.254121e+01 -1.624350e+01 3.068144e+02) (-5.623542e-01 -1.478870e-01 6.980992e+00) (0.000000e+00 0.000000e+00 0.000000e+00))
5e-06         	((-4.905831e+00 1.275002e+02 6.833384e+00) (4.161961e-03 9.312280e-01 5.415898e-03) (0.000000e+00 0.000000e+00 0.000000e+00)) ((-5.330808e+01 -7.247573e+01 1.324486e+03) (-7.987841e-01 -5.331445e-02 9.264359e+00) (0.000000e+00 0.000000e+00 0.000000e+00))
7.5e-06       	((-1.318758e+01 2.753524e+02 2.755803e+01) (1.457826e-02 1.020359e+00 -4.890259e-03) (0.000000e+00 0.000000e+00 0.000000e+00)) ((-7.131159e-01 -2.870356e+02 2.886524e+03) (-8.892697e-01 5.774020e-02 1.004957e+01) (0.000000e+00 0.000000e+00 0.000000e+00))
1e-05         	((-5.875144e+00 1.831545e+02 6.589664e+00) (2.845289e-02 9.131148e-01 -3.931578e-02) (0.000000e+00 0.000000e+00 0.000000e+00)) ((-1.080297e+02 -6.977939e+01 1.890682e+03) (-1.115857e+00 4.097776e-01 8.835789e+00) (0.000000e+00 0.000000e+00 0.000000e+00))
1.25e-05      	((2.688098e+00 5.358797e+01 -1.357812e+01) (3.211838e-02 8.644341e-01 -1.948296e-02) (0.000000e+00 0.000000e+00 0.000000e+00)) ((-1.703939e+02 1.397147e+02 5.086468e+02) (-8.909955e-01 2.151069e-01 8.313756e+00) (0.000000e+00 0.000000e+00 0.000000e+00))
1.5e-05       	((2.073032e+00 1.186146e+01 -8.963794e+00) (2.188748e-02 7.938723e-01 -3.981350e-03) (0.000000e+00 0.000000e+00 0.000000e+00)) ((-8.614926e+01 9.246359e+01 9.775622e+01) (-6.914431e-01 5.052729e-02 7.712762e+00) (0.000000e+00 0.000000e+00 0.000000e+00))
1.75e-05      	((-1.399285e+00 2.492028e+01 2.757503e+00) (1.002632e-02 7.889359e-01 1.812747e-02) (0.000000e+00 0.000000e+00 0.000000e+00)) ((9.785804e+00 -2.844654e+01 2.635021e+02) (-5.032832e-01 -1.785456e-01 7.784366e+00) (0.000000e+00 0.000000e+00 0.000000e+00))
2e-05         	((-2.484560e+00 4.265753e+01 8.570748e+00) (4.914313e-03 7.488350e-01 1.057052e-02) (0.000000e+00 0.000000e+00 0.000000e+00)) ((4.461026e+01 -8.752105e+01 4.519824e+02) (-5.353681e-01 -1.046993e-01 7.436023e+00) (0.000000e+00 0.000000e+00 0.000000e+00))
2.25e-05      	((-1.735722e+00 4.311220e+01 5.998316e+00) (1.639899e-03 7.228401e-01 -2.133705e-03) (0.000000e+00 0.000000e+00 0.000000e+00)) ((1.736156e+01 -6.083358e+01 4.491439e+02) (-6.308584e-01 2.036981e-02 7.209682e+00) (0.000000e+00 0.000000e+00 0.000000e+00))
2.5e-05       	((-9.083540e-01 3.010634e+01 -4.446323e-01) (-7.816212e-04 7.066793e-01 -1.239597e-02) (0.000000e+00 0.000000e+00 0.000000e+00)) ((-3.242248e+01 4.534956e+00 3.109030e+02) (-7.133787e-01 1.210749e-01 7.072548e+00) (0.000000e+00 0.000000e+00 0.000000e+00))
2.75e-05      	((-8.059810e-01 1.865018e+01 -4.329425e+00) (-2.414410e-03 6.844578e-01 -1.855317e-02) (0.000000e+00 0.000000e+00 0.000000e+00)) ((-5.806469e+01 4.344122e+01 1.953958e+02) (-7.484717e-01 1.812828e-01 6.867056e+00) (0.000000e+00 0.000000e+00 0.000000e+00))
3e-05         	((-1.064613e+00 1.699409e+01 -3.265003e+00) (-3.543801e-03 6.671371e-01 -1.638960e-02) (0.000000e+00 0.000000e+00 0.000000e+00)) ((-4.519693e+01 3.239448e+01 1.814205e+02) (-7.076677e-01 1.586512e-01 6.705285e+00) (0.000000e+00 0.000000e+00 0.000000e+00))
3.25e-05      	((-1.135743e+00 2.222792e+01 3.527754e-01) (-3.769933e-03 6.617241e-01 -9.753752e-03) (0.000000e+00 0.000000e+00 0.000000e+00)) ((-1.477151e+01 -4.005764e+00 2.343876e+02) (-6.374075e-01 9.208536e-02 6.653362e+00) (0.000000e+00 0.000000e+00 0.000000e+00))
3.5e-05       	((-8.837726e-01 2.690596e+01 2.830328e+00) (-3.533729e-03 6.629323e-01 -3.387795e-03) (0.000000e+00 0.000000e+00 0.000000e+00)) ((4.514310e+00 -2.861427e+01 2.785559e+02) (-5.784032e-01 2.864788e-02 6.662964e+00) (0.000000e+00 0.000000e+00 0.000000e+00))
3.75e-05      	((-5.102924e-01 2.711093e+01 2.676337e+00) (-3.201030e-03 6.605620e-01 -5.709068e-04) (0.000000e+00 0.000000e+00 0.000000e+00)) ((2.279890e+00 -2.670153e+01 2.768361e+02) (-5.511481e-01 7.998109e-04 6.635926e+00) (0.000000e+00 0.000000e+00 0.000000e+00))
4e-05         	((-2.405752e-01 2.430442e+01 1.037568e+00) (-3.250527e-03 6.519827e-01 -1.571607e-03) (0.000000e+00 0.000000e+00 0.000000e+00)) ((-1.136892e+01 -9.998341e+00 2.460995e+02) (-5.555717e-01 1.077383e-02 6.550740e+00) (0.000000e+00 0.000000e+00 0.000000e+00))
4.25e-05      	((-1.313813e-01 2.189833e+01 -1.704558e-01) (-3.580535e-03 6.398657e-01 -4.830828e-03) (0.000000e+00 0.000000e+00 0.000000e+00)) ((-2.090700e+01 2.237797e+00 2.209920e+02) (-5.785265e-01 4.311461e-02 6.433119e+00) (0.000000e+00 0.000000e+00 0.000000e+00))
4.5e-05       	((-1.098905e-01 2.163515e+01 -7.778473e-02) (-4.012955e-03 6.294001e-01 -7.563534e-03) (0.000000e+00 0.000000e+00 0.000000e+00)) ((-1.960934e+01 1.356737e+00 2.181715e+02) (-5.973899e-01 7.017463e-02 6.333093e+00) (0.000000e+00 0.000000e+00 0.000000e+00))
4.75e-05      	((-6.791221e-02 2.282198e+01 8.364103e-01) (-4.385512e-03 6.234268e-01 -8.285077e-03) (0.000000e+00 0.000000e+00 0.000000e+00)) ((-1.166577e+01 -7.746759e+00 2.296156e+02) (-6.003534e-01 7.721995e-02 6.277320e+00) (0.000000e+00 0.000000e+00 0.000000e+00))
5e-05         	((3.857667e-02 2.389191e+01 1.601670e+00) (-4.531481e-03 6.218412e-01 -7.407550e-03) (0.000000e+00 0.000000e+00 0.000000e+00)) ((-5.176794e+00 -1.531729e+01 2.392287e+02) (-5.911987e-01 6.840788e-02 6.263123e+00) (0.000000e+00 0.000000e+00 0.000000e+00))
5.25e-05      	((2.064670e-01 2.398059e+01 1.781246e+00) (-4.489914e-03 6.213803e-01 -6.349458e-03) (0.000000e+00 0.000000e+00 0.000000e+00)) ((-3.572299e+00 -1.697649e+01 2.384137e+02) (-5.814079e-01 5.791344e-02 6.258255e+00) (0.000000e+00 0.000000e+00 0.000000e+00))
5.5e-05       	((3.884350e-01 2.331900e+01 1.543129e+00) (-4.276862e-03 6.201058e-01 -6.027214e-03) (0.000000e+00 0.000000e+00 0.000000e+00)) ((-5.362101e+00 -1.444093e+01 2.299612e+02) (-5.781648e-01 5.489815e-02 6.243489e+00) (0.000000e+00 0.000000e+00 0.000000e+00))
5.75e-05      	((5.457434e-01 2.256261e+01 1.233573e+00) (-4.000072e-03 6.174633e-01 -6.414381e-03) (0.000000e+00 0.000000e+00 0.000000e+00)) ((-7.739251e+00 -1.120852e+01 2.208144e+02) (-5.806182e-01 5.904105e-02 6.214419e+00) (0.000000e+00 0.000000e+00 0.000000e+00))
6e-05         	((6.712587e-01 2.226623e+01 1.133581e+00) (-3.639416e-03 6.141553e-01 -7.311633e-03) (0.000000e+00 0.000000e+00 0.000000e+00)) ((-8.465280e+00 -1.009770e+01 2.165890e+02) (-5.874728e-01 6.842025e-02 6.177899e+00) (0.000000e+00 0.000000e+00 0.000000e+00))
6.25e-05      	((7.636601e-01 2.237311e+01 1.253425e+00) (-3.326967e-03 6.111117e-01 -8.312074e-03) (0.000000e+00 0.000000e+00 0.000000e+00)) ((-7.400841e+00 -1.121259e+01 2.167295e+02) (-5.955050e-01 7.881032e-02 6.144510e+00) (0.000000e+00 0.000000e+00 0.000000e+00))
6.5e-05       	((8.427422e-01 2.268172e+01 1.487197e+00) (-3.131370e-03 6.088610e-01 -9.022989e-03) (0.000000e+00 0.000000e+00 0.000000e+00)) ((-5.411580e+00 -1.347752e+01 2.190202e+02) (-6.012705e-01 8.622644e-02 6.120221e+00) (0.000000e+00 0.000000e+00 0.000000e+00))
6.75e-05      	((9.241334e-01 2.294425e+01 1.700958e+00) (-3.041537e-03 6.072435e-01 -9.506230e-03) (0.000000e+00 0.000000e+00 0.000000e+00)) ((-3.586898e+00 -1.554050e+01 2.208266e+02) (-6.053490e-01 9.124440e-02 6.103320e+00) (0.000000e+00 0.000000e+00 0.000000e+00))
7e-05         	((1.013280e+00 2.303312e+01 1.819806e+00) (-2.994958e-03 6.058954e-01 -9.868682e-03) (0.000000e+00 0.000000e+00 0.000000e+00)) ((-2.540106e+00 -1.664958e+01 2.208191e+02) (-6.084502e-01 9.498488e-02 6.089530e+00) (0.000000e+00 0.000000e+00 0.000000e+00))
7.25e-05      	((1.104414e+00 2.296887e+01 1.850009e+00) (-2.920251e-03 6.044503e-01 -1.025938e-02) (0.000000e+00 0.000000e+00 0.000000e+00)) ((-2.221850e+00 -1.687350e+01 2.192615e+02) (-6.117418e-01 9.900185e-02 6.074463e+00) (0.000000e+00 0.000000e+00 0.000000e+00))
7.5e-05       	((1.186582e+00 2.285123e+01 1.842430e+00) (-2.772653e-03 6.028251e-01 -1.073105e-02) (0.000000e+00 0.000000e+00 0.000000e+00)) ((-2.220057e+00 -1.673095e+01 2.172605e+02) (-6.156859e-01 1.038772e-01 6.056838e+00) (0.000000e+00 0.000000e+00 0.000000e+00))
7.75e-05      	((1.253065e+00 2.277130e+01 1.843105e+00) (-2.585554e-03 6.010445e-01 -1.127182e-02) (0.000000e+00 0.000000e+00 0.000000e+00)) ((-2.166390e+00 -1.668862e+01 2.157938e+02) (-6.202047e-01 1.094621e-01 6.037233e+00) (0.000000e+00 0.000000e+00 0.000000e+00))
8e-05         	((1.303738e+00 2.276492e+01 1.872338e+00) (-2.353284e-03 5.991465e-01 -1.181134e-02) (0.000000e+00 0.000000e+00 0.000000e+00)) ((-1.896064e+00 -1.694976e+01 2.152198e+02) (-6.246064e-01 1.150617e-01 6.015982e+00) (0.000000e+00 0.000000e+00 0.000000e+00))
8.25e-05      	((1.347404e+00 2.281650e+01 1.920704e+00) (-2.136048e-03 5.974418e-01 -1.227942e-02) (0.000000e+00 0.000000e+00 0.000000e+00)) ((-1.490877e+00 -1.741176e+01 2.152935e+02) (-6.284353e-01 1.199067e-01 5.996779e+00) (0.000000e+00 0.000000e+00 0.000000e+00))
8.5e-05       	((1.387304e+00 2.288815e+01 1.977290e+00) (-1.930268e-03 5.960024e-01 -1.274596e-02) (0.000000e+00 0.000000e+00 0.000000e+00)) ((-1.022216e+00 -1.796122e+01 2.156040e+02) (-6.324696e-01 1.247212e-01 5.980333e+00) (0.000000e+00 0.000000e+00 0.000000e+00))
8.75e-05      	((1.422582e+00 2.294786e+01 2.033736e+00) (-1.687182e-03 5.949881e-01 -1.323908e-02) (0.000000e+00 0.000000e+00 0.000000e+00)) ((-5.398476e-01 -1.851405e+01 2.158404e+02) (-6.372539e-01 1.298680e-01 5.967800e+00) (0.000000e+00 0.000000e+00 0.000000e+00))
9e-05         	((1.451003e+00 2.298282e+01 2.080622e+00) (-1.457819e-03 5.941293e-01 -1.378495e-02) (0.000000e+00 0.000000e+00 0.000000e+00)) ((-1.236982e-01 -1.897724e+01 2.158973e+02) (-6.426736e-01 1.355098e-01 5.956953e+00) (0.000000e+00 0.000000e+00 0.000000e+00))
9.25e-05      	((1.472863e+00 2.299698e+01 2.114150e+00) (-1.247176e-03 5.933467e-01 -1.436515e-02) (0.000000e+00 0.000000e+00 0.000000e+00)) ((1.834949e-01 -1.931128e+01 2.158115e+02) (-6.484431e-01 1.414711e-01 5.947044e+00) (0.000000e+00 0.000000e+00 0.000000e+00))
9.5e-05       	((1.487514e+00 2.300149e+01 2.135032e+00) (-1.049427e-03 5.926659e-01 -1.496889e-02) (0.000000e+00 0.000000e+00 0.000000e+00)) ((3.760092e-01 -1.952265e+01 2.157017e+02) (-6.544675e-01 1.476597e-01 5.938286e+00) (0.000000e+00 0.000000e+00 0.000000e+00))
9.75e-05      	((1.493238e+00 2.300642e+01 2.146748e+00) (-8.829177e-04 5.920778e-01 -1.558870e-02) (0.000000e+00 0.000000e+00 0.000000e+00)) ((4.770182e-01 -1.964714e+01 2.156866e+02) (-6.606747e-01 1.539959e-01 5.930777e+00) (0.000000e+00 0.000000e+00 0.000000e+00))
0.0001        	((1.488580e+00 2.301805e+01 2.153117e+00) (-7.432078e-04 5.915903e-01 -1.618748e-02) (0.000000e+00 0.000000e+00 0.000000e+00)) ((5.177180e-01 -1.972417e+01 2.158441e+02) (-6.666924e-01 1.601163e-01 5.924549e+00) (0.000000e+00 0.000000e+00 0.000000e+00))
0.0001025     	((1.476010e+00 2.303820e+01 2.156900e+00) (-6.831194e-04 5.911350e-01 -1.672884e-02) (0.000000e+00 0.000000e+00 0.000000e+00)) ((5.236302e-01 -1.977860e+01 2.161684e+02) (-6.720890e-01 1.655951e-01 5.919446e+00) (0.000000e+00 0.000000e+00 0.000000e+00))
0.000105      	((1.459192e+00 2.306593e+01 2.157927e+00) (-7.411039e-04 5.907423e-01 -1.721969e-02) (0.000000e+00 0.000000e+00 0.000000e+00)) ((4.947401e-01 -1.980505e+01 2.166137e+02) (-6.769763e-01 1.704392e-01 5.916161e+00) (0.000000e+00 0.000000e+00 0.000000e+00))
0.0001075     	((1.440377e+00 2.309932e+01 2.153366e+00) (-8.762649e-04 5.903441e-01 -1.765895e-02) (0.000000e+00 0.000000e+00 0.000000e+00)) ((4.056006e-01 -1.977361e+01 2.171384e+02) (-6.812847e-01 1.746960e-01 5.913601e+00) (0.000000e+00 0.000000e+00 0.000000e+00))
0.00011       	((1.421367e+00 2.313459e+01 2.143536e+00) (-1.060866e-03 5.899334e-01 -1.806946e-02) (0.000000e+00 0.000000e+00 0.000000e+00)) ((2.637425e-01 -1.968638e+01 2.176860e+02) (-6.852494e-01 1.786133e-01 5.911421e+00) (0.000000e+00 0.000000e+00 0.000000e+00))
0.0001125     	((1.403638e+00 2.316810e+01 2.130951e+00) (-1.281641e-03 5.894925e-01 -1.844611e-02) (0.000000e+00 0.000000e+00 0.000000e+00)) ((9.771309e-02 -1.956817e+01 2.182046e+02) (-6.888306e-01 1.821553e-01 5.909299e+00) (0.000000e+00 0.000000e+00 0.000000e+00))
0.000115      	((1.388772e+00 2.319865e+01 2.118727e+00) (-1.514882e-03 5.890357e-01 -1.879309e-02) (0.000000e+00 0.000000e+00 0.000000e+00)) ((-6.096503e-02 -1.944960e+01 2.186651e+02) (-6.920955e-01 1.853795e-01 5.907135e+00) (0.000000e+00 0.000000e+00 0.000000e+00))
0.0001175     	((1.378233e+00 2.322541e+01 2.108067e+00) (-1.738332e-03 5.885353e-01 -1.908044e-02) (0.000000e+00 0.000000e+00 0.000000e+00)) ((-2.003765e-01 -1.934242e+01 2.190437e+02) (-6.947313e-01 1.880221e-01 5.904421e+00) (0.000000e+00 0.000000e+00 0.000000e+00))
0.00012       	((1.373616e+00 2.324864e+01 2.098088e+00) (-1.915854e-03 5.880039e-01 -1.928685e-02) (0.000000e+00 0.000000e+00 0.000000e+00)) ((-3.302751e-01 -1.923707e+01 2.193260e+02) (-6.965260e-01 1.899088e-01 5.900924e+00) (0.000000e+00 0.000000e+00 0.000000e+00))
0.0001225     	((1.376199e+00 2.326928e+01 2.087710e+00) (-2.043501e-03 5.873991e-01 -1.943152e-02) (0.000000e+00 0.000000e+00 0.000000e+00)) ((-4.627472e-01 -1.912215e+01 2.195079e+02) (-6.976222e-01 1.912377e-01 5.896181e+00) (0.000000e+00 0.000000e+00 0.000000e+00))
0.000125      	((1.386193e+00 2.328826e+01 2.077233e+00) (-2.106896e-03 5.867309e-01 -1.952595e-02) (0.000000e+00 0.000000e+00 0.000000e+00)) ((-5.956677e-01 -1.900064e+01 2.195964e+02) (-6.981253e-01 1.921360e-01 5.890159e+00) (0.000000e+00 0.000000e+00 0.000000e+00))
0.0001275     	((1.402912e+00 2.330546e+01 2.066854e+00) (-2.134308e-03 5.860152e-01 -1.957297e-02) (0.000000e+00 0.000000e+00 0.000000e+00)) ((-7.267886e-01 -1.887530e+01 2.195976e+02) (-6.980813e-01 1.925977e-01 5.883295e+00) (0.000000e+00 0.000000e+00 0.000000e+00))
0.00013       	((1.424501e+00 2.332055e+01 2.055890e+00) (-2.135987e-03 5.853140e-01 -1.957346e-02) (0.000000e+00 0.000000e+00 0.000000e+00)) ((-8.620703e-01 -1.874097e+01 2.195270e+02) (-6.975609e-01 1.926149e-01 5.876320e+00) (0.000000e+00 0.000000e+00 0.000000e+00))
0.0001325     	((1.449407e+00 2.333279e+01 2.042668e+00) (-2.127000e-03 5.846298e-01 -1.952803e-02) (0.000000e+00 0.000000e+00 0.000000e+00)) ((-1.017154e+00 -1.858215e+01 2.193933e+02) (-6.965747e-01 1.921861e-01 5.869407e+00) (0.000000e+00 0.000000e+00 0.000000e+00))
0.000135      	((1.475964e+00 2.334183e+01 2.026189e+00) (-2.108113e-03 5.839918e-01 -1.943756e-02) (0.000000e+00 0.000000e+00 0.000000e+00)) ((-1.201373e+00 -1.838985e+01 2.192106e+02) (-6.951513e-01 1.913203e-01 5.862863e+00) (0.000000e+00 0.000000e+00 0.000000e+00))
0.0001375     	((1.502925e+00 2.334744e+01 2.006369e+00) (-2.093439e-03 5.833898e-01 -1.931130e-02) (0.000000e+00 0.000000e+00 0.000000e+00)) ((-1.415298e+00 -1.816400e+01 2.189897e+02) (-6.933773e-01 1.900981e-01 5.856725e+00) (0.000000e+00 0.000000e+00 0.000000e+00))
0.00014       	((1.529107e+00 2.335073e+01 1.983336e+00) (-2.077890e-03 5.828343e-01 -1.915943e-02) (0.000000e+00 0.000000e+00 0.000000e+00)) ((-1.658626e+00 -1.790658e+01 2.187540e+02) (-6.913580e-01 1.886243e-01 5.851050e+00) (0.000000e+00 0.000000e+00 0.000000e+00))
0.0001425     	((1.553864e+00 2.335273e+01 1.957132e+00) (-2.074681e-03 5.822914e-01 -1.898674e-02) (0.000000e+00 0.000000e+00 0.000000e+00)) ((-1.932032e+00 -1.761848e+01 2.185208e+02) (-6.891136e-01 1.869385e-01 5.845633e+00) (0.000000e+00 0.000000e+00 0.000000e+00))
0.000145      	((1.576799e+00 2.335513e+01 1.928151e+00) (-2.054687e-03 5.816984e-01 -1.879657e-02) (0.000000e+00 0.000000e+00 0.000000e+00)) ((-2.233239e+00 -1.730402e+01 2.183110e+02) (-6.866178e-01 1.851005e-01 5.839569e+00) (0.000000e+00 0.000000e+00 0.000000e+00))
0.0001475     	((1.594572e+00 2.335616e+01 1.897901e+00) (-1.888715e-03 5.811843e-01 -1.867949e-02) (0.000000e+00 0.000000e+00 0.000000e+00)) ((-2.545252e+00 -1.698180e+01 2.181410e+02) (-6.849298e-01 1.841306e-01 5.832805e+00) (0.000000e+00 0.000000e+00 0.000000e+00))
0.00015       	((1.606301e+00 2.335410e+01 1.866979e+00) (-1.891709e-03 5.808832e-01 -1.855135e-02) (0.000000e+00 0.000000e+00 0.000000e+00)) ((-2.860286e+00 -1.665891e+01 2.180024e+02) (-6.833288e-01 1.828915e-01 5.829868e+00) (0.000000e+00 0.000000e+00 0.000000e+00))
0.0001525     	((1.616464e+00 2.334968e+01 1.836265e+00) (-1.880843e-03 5.805764e-01 -1.844120e-02) (0.000000e+00 0.000000e+00 0.000000e+00)) ((-3.170386e+00 -1.634035e+01 2.178564e+02) (-6.819089e-01 1.818507e-01 5.826737e+00) (0.000000e+00 0.000000e+00 0.000000e+00))
0.000155      	((1.625337e+00 2.334307e+01 1.806582e+00) (-1.862977e-03 5.802973e-01 -1.835226e-02) (0.000000e+00 0.000000e+00 0.000000e+00)) ((-3.467511e+00 -1.603443e+01 2.177015e+02) (-6.807353e-01 1.810266e-01 5.823816e+00) (0.000000e+00 0.000000e+00 0.000000e+00))
0.0001575     	((1.632428e+00 2.333320e+01 1.779145e+00) (-1.843374e-03 5.800524e-01 -1.830712e-02) (0.000000e+00 0.000000e+00 0.000000e+00)) ((-3.738421e+00 -1.575410e+01 2.175319e+02) (-6.800504e-01 1.806361e-01 5.821209e+00) (0.000000e+00 0.000000e+00 0.000000e+00))
0.00016       	((1.636891e+00 2.332017e+01 1.754412e+00) (-1.823463e-03 5.798287e-01 -1.829762e-02) (0.000000e+00 0.000000e+00 0.000000e+00)) ((-3.978496e+00 -1.550482e+01 2.173570e+02) (-6.797527e-01 1.805918e-01 5.818811e+00) (0.000000e+00 0.000000e+00 0.000000e+00))
0.0001625     	((1.638929e+00 2.330383e+01 1.732775e+00) (-1.814557e-03 5.796183e-01 -1.832300e-02) (0.000000e+00 0.000000e+00 0.000000e+00)) ((-4.183711e+00 -1.529035e+01 2.171734e+02) (-6.798308e-01 1.808769e-01 5.816647e+00) (0.000000e+00 0.000000e+00 0.000000e+00))
0.000165      	((1.639233e+00 2.328510e+01 1.714797e+00) (-1.802353e-03 5.794174e-01 -1.838159e-02) (0.000000e+00 0.000000e+00 0.000000e+00)) ((-4.349371e+00 -1.511552e+01 2.169831e+02) (-6.802551e-01 1.814846e-01 5.814542e+00) (0.000000e+00 0.000000e+00 0.000000e+00))
0.0001675     	((1.638684e+00 2.326396e+01 1.700349e+00) (-1.798352e-03 5.792146e-01 -1.847201e-02) (0.000000e+00 0.000000e+00 0.000000e+00)) ((-4.476773e+00 -1.497814e+01 2.167769e+02) (-6.810027e-01 1.823949e-01 5.812493e+00) (0.000000e+00 0.000000e+00 0.000000e+00))
0.00017       	((1.637716e+00 2.324064e+01 1.689313e+00) (-1.799106e-03 5.790143e-01 -1.858563e-02) (0.000000e+00 0.000000e+00 0.000000e+00)) ((-4.567320e+00 -1.487629e+01 2.165528e+02) (-6.819803e-01 1.835231e-01 5.810516e+00) (0.000000e+00 0.000000e+00 0.000000e+00))
0.0001725     	((1.636814e+00 2.321513e+01 1.681322e+00) (-1.817515e-03 5.787998e-01 -1.871075e-02) (0.000000e+00 0.000000e+00 0.000000e+00)) ((-4.624849e+00 -1.480562e+01 2.163062e+02) (-6.830584e-01 1.847457e-01 5.808573e+00) (0.000000e+00 0.000000e+00 0.000000e+00))
0.000175      	((1.635946e+00 2.318824e+01 1.675945e+00) (-1.845076e-03 5.785847e-01 -1.883839e-02) (0.000000e+00 0.000000e+00 0.000000e+00)) ((-4.654525e+00 -1.476146e+01 2.160455e+02) (-6.841520e-01 1.859793e-01 5.806718e+00) (0.000000e+00 0.000000e+00 0.000000e+00))
0.0001775     	((1.635403e+00 2.316017e+01 1.672959e+00) (-1.886077e-03 5.783525e-01 -1.896259e-02) (0.000000e+00 0.000000e+00 0.000000e+00)) ((-4.658885e+00 -1.474113e+01 2.157699e+02) (-6.851923e-01 1.871631e-01 5.804823e+00) (0.000000e+00 0.000000e+00 0.000000e+00))
0.00018       	((1.635374e+00 2.313146e+01 1.672267e+00) (-1.929363e-03 5.781140e-01 -1.908276e-02) (0.000000e+00 0.000000e+00 0.000000e+00)) ((-4.639399e+00 -1.474318e+01 2.154830e+02) (-6.861795e-01 1.882990e-01 5.802890e+00) (0.000000e+00 0.000000e+00 0.000000e+00))
0.0001825     	((1.636393e+00 2.310205e+01 1.673896e+00) (-1.974874e-03 5.778679e-01 -1.919801e-02) (0.000000e+00 0.000000e+00 0.000000e+00)) ((-4.595741e+00 -1.476732e+01 2.151789e+02) (-6.871128e-01 1.893802e-01 5.800896e+00) (0.000000e+00 0.000000e+00 0.000000e+00))
0.000185      	((1.639256e+00 2.307274e+01 1.677561e+00) (-2.021557e-03 5.775880e-01 -1.929825e-02) (0.000000e+00 0.000000e+00 0.000000e+00)) ((-4.531496e+00 -1.480979e+01 2.148572e+02) (-6.878620e-01 1.903055e-01 5.798582e+00) (0.000000e+00 0.000000e+00 0.000000e+00))
0.0001875     	((1.644393e+00 2.304341e+01 1.683159e+00) (-2.055581e-03 5.772805e-01 -1.939795e-02) (0.000000e+00 0.000000e+00 0.000000e+00)) ((-4.447651e+00 -1.486922e+01 2.145124e+02) (-6.885898e-01 1.912334e-01 5.795857e+00) (0.000000e+00 0.000000e+00 0.000000e+00))
0.00019       	((1.652418e+00 2.301468e+01 1.690285e+00) (-2.073024e-03 5.769438e-01 -1.949476e-02) (0.000000e+00 0.000000e+00 0.000000e+00)) ((-4.348927e+00 -1.494086e+01 2.141443e+02) (-6.892663e-01 1.921416e-01 5.792675e+00) (0.000000e+00 0.000000e+00 0.000000e+00))
0.0001925     	((1.663950e+00 2.298692e+01 1.698566e+00) (-2.080422e-03 5.765632e-01 -1.958647e-02) (0.000000e+00 0.000000e+00 0.000000e+00)) ((-4.239577e+00 -1.502034e+01 2.137504e+02) (-6.898631e-01 1.930053e-01 5.788948e+00) (0.000000e+00 0.000000e+00 0.000000e+00))
0.000195      	((1.679061e+00 2.296095e+01 1.707775e+00) (-2.071767e-03 5.761581e-01 -1.967215e-02) (0.000000e+00 0.000000e+00 0.000000e+00)) ((-4.122718e+00 -1.510515e+01 2.133379e+02) (-6.903827e-01 1.938188e-01 5.784816e+00) (0.000000e+00 0.000000e+00 0.000000e+00))
0.0001975     	((1.697892e+00 2.293700e+01 1.718010e+00) (-2.056225e-03 5.757221e-01 -1.974233e-02) (0.000000e+00 0.000000e+00 0.000000e+00)) ((-3.997765e+00 -1.519606e+01 2.129079e+02) (-6.907267e-01 1.944833e-01 5.780300e+00) (0.000000e+00 0.000000e+00 0.000000e+00))
0.0002        	((1.720335e+00 2.291602e+01 1.729182e+00) (-2.023455e-03 5.752820e-01 -1.979635e-02) (0.000000e+00 0.000000e+00 0.000000e+00)) ((-3.866621e+00 -1.529215e+01 2.124708e+02) (-6.909062e-01 1.950012e-01 5.775569e+00) (0.000000e+00 0.000000e+00 0.000000e+00))
0.0002025     	((1.746827e+00 2.289806e+01 1.741217e+00) (-1.977735e-03 5.748255e-01 -1.983006e-02) (0.000000e+00 0.000000e+00 0.000000e+00)) ((-3.730221e+00 -1.539224e+01 2.120227e+02) (-6.908722e-01 1.953323e-01 5.770538e+00) (0.000000e+00 0.000000e+00 0.000000e+00))
0.000205      	((1.777043e+00 2.288283e+01 1.753415e+00) (-1.902494e-03 5.743784e-01 -1.984585e-02) (0.000000e+00 0.000000e+00 0.000000e+00)) ((-3.595160e+00 -1.548944e+01 2.115640e+02) (-6.906668e-01 1.955151e-01 5.765301e+00) (0.000000e+00 0.000000e+00 0.000000e+00))
0.0002075     	((1.810892e+00 2.286965e+01 1.764954e+00) (-1.805284e-03 5.739278e-01 -1.984097e-02) (0.000000e+00 0.000000e+00 0.000000e+00)) ((-3.468953e+00 -1.557555e+01 2.110890e+02) (-6.902538e-01 1.955194e-01 5.759803e+00) (0.000000e+00 0.000000e+00 0.000000e+00))
0.00021       	((1.847272e+00 2.285870e+01 1.775123e+00) (-1.678295e-03 5.734860e-01 -1.981633e-02) (0.000000e+00 0.000000e+00 0.000000e+00)) ((-3.358693e+00 -1.564435e+01 2.106109e+02) (-6.896439e-01 1.953596e-01 5.754093e+00) (0.000000e+00 0.000000e+00 0.000000e+00))
0.0002125     	((1.884960e+00 2.285054e+01 1.783392e+00) (-1.533665e-03 5.730431e-01 -1.977171e-02) (0.000000e+00 0.000000e+00 0.000000e+00)) ((-3.270135e+00 -1.569170e+01 2.101478e+02) (-6.888291e-01 1.950260e-01 5.748189e+00) (0.000000e+00 0.000000e+00 0.000000e+00))
0.000215      	((1.922962e+00 2.284582e+01 1.789924e+00) (-1.353828e-03 5.726313e-01 -1.970768e-02) (0.000000e+00 0.000000e+00 0.000000e+00)) ((-3.202049e+00 -1.572017e+01 2.097162e+02) (-6.878406e-01 1.945393e-01 5.742243e+00) (0.000000e+00 0.000000e+00 0.000000e+00))
0.0002175     	((1.960162e+00 2.284434e+01 1.794818e+00) (-1.156472e-03 5.722450e-01 -1.962593e-02) (0.000000e+00 0.000000e+00 0.000000e+00)) ((-3.153242e+00 -1.573205e+01 2.093256e+02) (-6.866950e-01 1.939020e-01 5.736374e+00) (0.000000e+00 0.000000e+00 0.000000e+00))
0.00022       	((1.995600e+00 2.284573e+01 1.798219e+00) (-9.418159e-04 5.719007e-01 -1.953107e-02) (0.000000e+00 0.000000e+00 0.000000e+00)) ((-3.121759e+00 -1.572989e+01 2.089819e+02) (-6.854482e-01 1.931566e-01 5.730755e+00) (0.000000e+00 0.000000e+00 0.000000e+00))
0.0002225     	((2.028843e+00 2.284903e+01 1.800244e+00) (-7.246060e-04 5.715884e-01 -1.942329e-02) (0.000000e+00 0.000000e+00 0.000000e+00)) ((-3.105465e+00 -1.571558e+01 2.086799e+02) (-6.840963e-01 1.922936e-01 5.725430e+00) (0.000000e+00 0.000000e+00 0.000000e+00))
0.000225      	((2.059299e+00 2.285361e+01 1.801165e+00) (-5.006009e-04 5.713232e-01 -1.930900e-02) (0.000000e+00 0.000000e+00 0.000000e+00)) ((-3.100853e+00 -1.569257e+01 2.084190e+02) (-6.827149e-01 1.913775e-01 5.720513e+00) (0.000000e+00 0.000000e+00 0.000000e+00))
0.0002275     	((2.086660e+00 2.285865e+01 1.801164e+00) (-2.825905e-04 5.710875e-01 -1.918786e-02) (0.000000e+00 0.000000e+00 0.000000e+00)) ((-3.105296e+00 -1.566326e+01 2.081943e+02) (-6.812898e-01 1.903935e-01 5.715951e+00) (0.000000e+00 0.000000e+00 0.000000e+00))
0.00023       	((2.110531e+00 2.286385e+01 1.800419e+00) (-6.944138e-05 5.708852e-01 -1.906475e-02) (0.000000e+00 0.000000e+00 0.000000e+00)) ((-3.116687e+00 -1.562999e+01 2.080065e+02) (-6.798684e-01 1.893866e-01 5.711776e+00) (0.000000e+00 0.000000e+00 0.000000e+00))
0.0002325     	((2.131097e+00 2.286875e+01 1.799205e+00) (1.361423e-04 5.707292e-01 -1.893188e-02) (0.000000e+00 0.000000e+00 0.000000e+00)) ((-3.131888e+00 -1.559551e+01 2.078490e+02) (-6.783899e-01 1.882776e-01 5.708144e+00) (0.000000e+00 0.000000e+00 0.000000e+00))
0.000235      	((2.148329e+00 2.287350e+01 1.797742e+00) (3.302730e-04 5.706136e-01 -1.879425e-02) (0.000000e+00 0.000000e+00 0.000000e+00)) ((-3.148884e+00 -1.556211e+01 2.077236e+02) (-6.768931e-01 1.871100e-01 5.705035e+00) (0.000000e+00 0.000000e+00 0.000000e+00))
0.0002375     	((2.162427e+00 2.287805e+01 1.796278e+00) (4.989647e-04 5.705092e-01 -1.865515e-02) (0.000000e+00 0.000000e+00 0.000000e+00)) ((-3.165240e+00 -1.553216e+01 2.076278e+02) (-6.753869e-01 1.859046e-01 5.702295e+00) (0.000000e+00 0.000000e+00 0.000000e+00))
0.00024       	((2.173637e+00 2.288256e+01 1.795073e+00) (6.521373e-04 5.704161e-01 -1.851548e-02) (0.000000e+00 0.000000e+00 0.000000e+00)) ((-3.178558e+00 -1.550802e+01 2.075606e+02) (-6.738779e-01 1.846762e-01 5.699829e+00) (0.000000e+00 0.000000e+00 0.000000e+00))
0.0002425     	((2.182363e+00 2.288689e+01 1.794136e+00) (7.852429e-04 5.703260e-01 -1.837301e-02) (0.000000e+00 0.000000e+00 0.000000e+00)) ((-3.188764e+00 -1.548937e+01 2.075166e+02) (-6.723383e-01 1.833993e-01 5.697595e+00) (0.000000e+00 0.000000e+00 0.000000e+00))
0.000245      	((2.188667e+00 2.289118e+01 1.793449e+00) (9.046562e-04 5.702539e-01 -1.823218e-02) (0.000000e+00 0.000000e+00 0.000000e+00)) ((-3.196202e+00 -1.547587e+01 2.074964e+02) (-6.708232e-01 1.821230e-01 5.695680e+00) (0.000000e+00 0.000000e+00 0.000000e+00))
0.0002475     	((2.192821e+00 2.289558e+01 1.792951e+00) (1.005262e-03 5.701952e-01 -1.809664e-02) (0.000000e+00 0.000000e+00 0.000000e+00)) ((-3.201730e+00 -1.546652e+01 2.074989e+02) (-6.693673e-01 1.808805e-01 5.694086e+00) (0.000000e+00 0.000000e+00 0.000000e+00))
0.00025       	((2.195296e+00 2.290031e+01 1.792577e+00) (1.095546e-03 5.701466e-01 -1.796831e-02) (0.000000e+00 0.000000e+00 0.000000e+00)) ((-3.206240e+00 -1.546009e+01 2.075216e+02) (-6.679868e-01 1.796968e-01 5.692697e+00) (0.000000e+00 0.000000e+00 0.000000e+00))
0.0002525     	((2.196848e+00 2.290514e+01 1.792266e+00) (1.173357e-03 5.700986e-01 -1.784694e-02) (0.000000e+00 0.000000e+00 0.000000e+00)) ((-3.210247e+00 -1.545520e+01 2.075546e+02) (-6.666738e-01 1.785692e-01 5.691438e+00) (0.000000e+00 0.000000e+00 0.000000e+00))
0.000255      	((2.197808e+00 2.291006e+01 1.791963e+00) (1.242350e-03 5.700622e-01 -1.772915e-02) (0.000000e+00 0.000000e+00 0.000000e+00)) ((-3.214338e+00 -1.545086e+01 2.075944e+02) (-6.654008e-01 1.774677e-01 5.690384e+00) (0.000000e+00 0.000000e+00 0.000000e+00))
0.0002575     	((2.198316e+00 2.291509e+01 1.791533e+00) (1.300772e-03 5.700334e-01 -1.761558e-02) (0.000000e+00 0.000000e+00 0.000000e+00)) ((-3.219976e+00 -1.544545e+01 2.076399e+02) (-6.641731e-01 1.763992e-01 5.689509e+00) (0.000000e+00 0.000000e+00 0.000000e+00))
0.00026       	((2.198228e+00 2.292023e+01 1.790930e+00) (1.350913e-03 5.700207e-01 -1.750813e-02) (0.000000e+00 0.000000e+00 0.000000e+00)) ((-3.227590e+00 -1.543855e+01 2.076926e+02) (-6.630167e-01 1.753839e-01 5.688879e+00) (0.000000e+00 0.000000e+00 0.000000e+00))
0.0002625     	((2.197942e+00 2.292547e+01 1.789952e+00) (1.393572e-03 5.700111e-01 -1.740396e-02) (0.000000e+00 0.000000e+00 0.000000e+00)) ((-3.239256e+00 -1.542777e+01 2.077482e+02) (-6.618943e-01 1.743949e-01 5.688354e+00) (0.000000e+00 0.000000e+00 0.000000e+00))
0.000265      	((2.197856e+00 2.293060e+01 1.788515e+00) (1.435464e-03 5.700059e-01 -1.730139e-02) (0.000000e+00 0.000000e+00 0.000000e+00)) ((-3.255668e+00 -1.541190e+01 2.078008e+02) (-6.607902e-01 1.734207e-01 5.687880e+00) (0.000000e+00 0.000000e+00 0.000000e+00))
0.0002675     	((2.198115e+00 2.293541e+01 1.786497e+00) (1.475558e-03 5.700078e-01 -1.720125e-02) (0.000000e+00 0.000000e+00 0.000000e+00)) ((-3.277869e+00 -1.538963e+01 2.078466e+02) (-6.597157e-01 1.724698e-01 5.687491e+00) (0.000000e+00 0.000000e+00 0.000000e+00))
0.00027       	((2.198623e+00 2.293990e+01 1.783940e+00) (1.516827e-03 5.700204e-01 -1.710520e-02) (0.000000e+00 0.000000e+00 0.000000e+00)) ((-3.305447e+00 -1.536143e+01 2.078867e+02) (-6.586901e-01 1.715612e-01 5.687197e+00) (0.000000e+00 0.000000e+00 0.000000e+00))
0.0002725     	((2.199331e+00 2.294416e+01 1.780717e+00) (1.556784e-03 5.700398e-01 -1.701464e-02) (0.000000e+00 0.000000e+00 0.000000e+00)) ((-3.339728e+00 -1.532613e+01 2.079225e+02) (-6.577262e-01 1.707071e-01 5.686982e+00) (0.000000e+00 0.000000e+00 0.000000e+00))
0.000275      	((2.200077e+00 2.294826e+01 1.776830e+00) (1.598426e-03 5.700636e-01 -1.692659e-02) (0.000000e+00 0.000000e+00 0.000000e+00)) ((-3.380738e+00 -1.528397e+01 2.079563e+02) (-6.567929e-01 1.698797e-01 5.686794e+00) (0.000000e+00 0.000000e+00 0.000000e+00))