# Forces      
# CofR        : (0.000000e+00 0.000000e+00 0.000000e+00)
# Time        forces(pressure viscous porous)	moments(pressure viscous porous)
2.5e-06       	((2.084462e-01 2.904459e+01 9.156502e-01) (-1.857715e-02 7.449167e-01 1.650945e-02) (0.000000e+00 0.000000e+00 0.000000e+00)) ((-1.950301e+01 -8.525505e+00 2.880939e+02) (-6.351892e-01 -1.846525e-01 7.612703e+00) (0.000000e+00 0.000000e+00 0.000000e+00))
5e-06         	((-9.034571e+00 1.186884e+02 3.420466e+00) (-8.655252e-03 9.645540e-01 5.120276e-03) (0.000000e+00 0.000000e+00 0.000000e+00)) ((-8.273603e+01 -4.253899e+01 1.276525e+03) (-8.869550e-01 -6.057408e-02 9.708949e+00) (0.000000e+00 0.000000e+00 0.000000e+00))
7.5e-06       	((-2.689455e+01 2.466430e+02 1.440315e+01) (-1.053030e-02 1.055462e+00 -1.388184e-02) (0.000000e+00 0.000000e+00 0.000000e+00)) ((-1.036755e+02 -1.689580e+02 2.735221e+03) (-1.071697e+00 1.284773e-01 1.063896e+01) (0.000000e+00 0.000000e+00 0.000000e+00))
1e-05         	((-1.290370e+01 1.639339e+02 -2.020195e+00) (1.163962e-02 9.374027e-01 -3.986026e-02) (0.000000e+00 0.000000e+00 0.000000e+00)) ((-1.765460e+02 1.083297e+01 1.767979e+03) (-1.218253e+00 4.119044e-01 9.231334e+00) (0.000000e+00 0.000000e+00 0.000000e+00))
1.25e-05      	((8.721885e+00 4.963851e+01 -1.412116e+01) (2.336540e-02 8.840870e-01 -2.344615e-02) (0.000000e+00 0.000000e+00 0.000000e+00)) ((-1.782505e+02 1.539660e+02 4.081235e+02) (-1.011025e+00 2.590617e-01 8.582686e+00) (0.000000e+00 0.000000e+00 0.000000e+00))
1.5e-05       	((9.036522e+00 1.044435e+01 -9.163828e+00) (1.956351e-02 8.176429e-01 -3.610981e-03) (0.000000e+00 0.000000e+00 0.000000e+00)) ((-9.187736e+01 1.038933e+02 1.341849e+01) (-7.604846e-01 5.652234e-02 7.962269e+00) (0.000000e+00 0.000000e+00 0.000000e+00))
1.75e-05      	((-8.734385e-01 2.091699e+01 1.648943e+00) (1.083586e-02 7.788772e-01 1.408399e-02) (0.000000e+00 0.000000e+00 0.000000e+00)) ((2.937613e-01 -1.535940e+01 2.178951e+02) (-5.546810e-01 -1.271155e-01 7.665516e+00) (0.000000e+00 0.000000e+00 0.000000e+00))
2e-05         	((-6.463860e+00 3.674638e+01 6.771196e+00) (-4.968747e-03 7.628426e-01 1.096818e-02) (0.000000e+00 0.000000e+00 0.000000e+00)) ((3.191701e+01 -7.287764e+01 4.321755e+02) (-5.713326e-01 -1.134424e-01 7.664488e+00) (0.000000e+00 0.000000e+00 0.000000e+00))
2.25e-05      	((-6.162867e+00 3.733499e+01 4.186270e+00) (-1.595474e-02 7.494883e-01 -7.586254e-05) (0.000000e+00 0.000000e+00 0.000000e+00)) ((4.810704e+00 -4.698374e+01 4.348894e+02) (-6.653958e-01 -1.586146e-02 7.640752e+00) (0.000000e+00 0.000000e+00 0.000000e+00))
2.5e-05       	((-3.462077e+00 2.583156e+01 -1.461110e+00) (-1.890257e-02 7.329996e-01 -9.974502e-03) (0.000000e+00 0.000000e+00 0.000000e+00)) ((-3.883015e+01 1.223630e+01 2.928555e+02) (-7.443575e-01 7.963926e-02 7.505220e+00) (0.000000e+00 0.000000e+00 0.000000e+00))
2.75e-05      	((-1.817584e+00 1.595270e+01 -4.414019e+00) (-1.690960e-02 7.081570e-01 -1.395898e-02) (0.000000e+00 0.000000e+00 0.000000e+00)) ((-5.708378e+01 4.355908e+01 1.777869e+02) (-7.555448e-01 1.221976e-01 7.238099e+00) (0.000000e+00 0.000000e+00 0.000000e+00))
3e-05         	((-2.012400e+00 1.521321e+01 -2.856527e+00) (-1.419730e-02 6.868777e-01 -1.032239e-02) (0.000000e+00 0.000000e+00 0.000000e+00)) ((-4.041716e+01 2.788817e+01 1.724285e+02) (-6.959610e-01 8.947381e-02 6.999471e+00) (0.000000e+00 0.000000e+00 0.000000e+00))
3.25e-05      	((-2.936379e+00 2.050522e+01 7.076313e-01) (-1.321696e-02 6.778135e-01 -3.452904e-03) (0.000000e+00 0.000000e+00 0.000000e+00)) ((-1.065015e+01 -8.683700e+00 2.344933e+02) (-6.189563e-01 2.235258e-02 6.899621e+00) (0.000000e+00 0.000000e+00 0.000000e+00))
3.5e-05       	((-3.388322e+00 2.475030e+01 2.869400e+00) (-1.391044e-02 6.767493e-01 1.758210e-03) (0.000000e+00 0.000000e+00 0.000000e+00)) ((5.935246e+00 -3.082803e+01 2.812881e+02) (-5.681391e-01 -3.052414e-02 6.895788e+00) (0.000000e+00 0.000000e+00 0.000000e+00))
3.75e-05      	((-3.102769e+00 2.443288e+01 2.446267e+00) (-1.513887e-02 6.740240e-01 3.876088e-03) (0.000000e+00 0.000000e+00 0.000000e+00)) ((1.606089e+00 -2.640024e+01 2.751569e+02) (-5.467822e-01 -5.325787e-02 6.880590e+00) (0.000000e+00 0.000000e+00 0.000000e+00))
4e-05         	((-2.578540e+00 2.124257e+01 7.641462e-01) (-1.611783e-02 6.649481e-01 3.098439e-03) (0.000000e+00 0.000000e+00 0.000000e+00)) ((-1.198940e+01 -9.123493e+00 2.380359e+02) (-5.472538e-01 -4.671097e-02 6.799582e+00) (0.000000e+00 0.000000e+00 0.000000e+00))
4.25e-05      	((-2.314978e+00 1.866453e+01 -3.162353e-01) (-1.668096e-02 6.521245e-01 1.322243e-03) (0.000000e+00 0.000000e+00 0.000000e+00)) ((-1.998681e+01 1.911590e+00 2.097065e+02) (-5.533871e-01 -2.958686e-02 6.677211e+00) (0.000000e+00 0.000000e+00 0.000000e+00))
4.5e-05       	((-2.392666e+00 1.842964e+01 -8.103863e-02) (-1.697263e-02 6.408214e-01 2.546633e-04) (0.000000e+00 0.000000e+00 0.000000e+00)) ((-1.725227e+01 -5.221610e-01 2.081936e+02) (-5.538165e-01 -1.915171e-02 6.567403e+00) (0.000000e+00 0.000000e+00 0.000000e+00))
4.75e-05      	((-2.585949e+00 1.978758e+01 8.688463e-01) (-1.732957e-02 6.343168e-01 5.066169e-04) (0.000000e+00 0.000000e+00 0.000000e+00)) ((-9.146470e+00 -1.021362e+01 2.237012e+02) (-5.458827e-01 -2.194409e-02 6.506174e+00) (0.000000e+00 0.000000e+00 0.000000e+00))
5e-05         	((-2.673899e+00 2.104756e+01 1.596481e+00) (-1.780844e-02 6.319295e-01 1.585525e-03) (0.000000e+00 0.000000e+00 0.000000e+00)) ((-3.283745e+00 -1.759260e+01 2.371375e+02) (-5.338561e-01 -3.317587e-02 6.487258e+00) (0.000000e+00 0.000000e+00 0.000000e+00))
5.25e-05      	((-2.613385e+00 2.124110e+01 1.700174e+00) (-1.828170e-02 6.311035e-01 2.529299e-03) (0.000000e+00 0.000000e+00 0.000000e+00)) ((-2.593313e+00 -1.860119e+01 2.384315e+02) (-5.247198e-01 -4.313190e-02 6.483836e+00) (0.000000e+00 0.000000e+00 0.000000e+00))
5.5e-05       	((-2.514900e+00 2.065587e+01 1.453167e+00) (-1.835502e-02 6.297498e-01 2.729577e-03) (0.000000e+00 0.000000e+00 0.000000e+00)) ((-4.550947e+00 -1.606710e+01 2.315883e+02) (-5.222508e-01 -4.536573e-02 6.471092e+00) (0.000000e+00 0.000000e+00 0.000000e+00))
5.75e-05      	((-2.460686e+00 1.991629e+01 1.192282e+00) (-1.839361e-02 6.273908e-01 2.477528e-03) (0.000000e+00 0.000000e+00 0.000000e+00)) ((-6.418709e+00 -1.343036e+01 2.236694e+02) (-5.230532e-01 -4.296460e-02 6.447987e+00) (0.000000e+00 0.000000e+00 0.000000e+00))
6e-05         	((-2.485007e+00 1.951314e+01 1.122133e+00) (-1.834455e-02 6.244777e-01 1.862531e-03) (0.000000e+00 0.000000e+00 0.000000e+00)) ((-6.685241e+00 -1.276614e+01 2.199075e+02) (-5.268919e-01 -3.685339e-02 6.418499e+00) (0.000000e+00 0.000000e+00 0.000000e+00))
6.25e-05      	((-2.566874e+00 1.954664e+01 1.240356e+00) (-1.828595e-02 6.216241e-01 1.210913e-03) (0.000000e+00 0.000000e+00 0.000000e+00)) ((-5.516743e+00 -1.403282e+01 2.210792e+02) (-5.310823e-01 -3.034875e-02 6.389546e+00) (0.000000e+00 0.000000e+00 0.000000e+00))
6.5e-05       	((-2.665777e+00 1.981027e+01 1.419261e+00) (-1.830507e-02 6.191747e-01 7.600196e-04) (0.000000e+00 0.000000e+00 0.000000e+00)) ((-3.998347e+00 -1.591989e+01 2.247091e+02) (-5.335899e-01 -2.589770e-02 6.365418e+00) (0.000000e+00 0.000000e+00 0.000000e+00))
6.75e-05      	((-2.752564e+00 2.004407e+01 1.550688e+00) (-1.844500e-02 6.172940e-01 4.418286e-04) (0.000000e+00 0.000000e+00 0.000000e+00)) ((-2.947245e+00 -1.732110e+01 2.279105e+02) (-5.352811e-01 -2.287807e-02 6.348148e+00) (0.000000e+00 0.000000e+00 0.000000e+00))
7e-05         	((-2.824280e+00 2.010986e+01 1.608729e+00) (-1.863002e-02 6.156383e-01 2.364092e-04) (0.000000e+00 0.000000e+00 0.000000e+00)) ((-2.469871e+00 -1.797537e+01 2.292792e+02) (-5.360341e-01 -2.101557e-02 6.333554e+00) (0.000000e+00 0.000000e+00 0.000000e+00))
7.25e-05      	((-2.889496e+00 2.002627e+01 1.629925e+00) (-1.883251e-02 6.140639e-01 2.191300e-05) (0.000000e+00 0.000000e+00 0.000000e+00)) ((-2.206138e+00 -1.825561e+01 2.290909e+02) (-5.369532e-01 -1.908043e-02 6.319905e+00) (0.000000e+00 0.000000e+00 0.000000e+00))
7.5e-05       	((-2.952167e+00 1.989203e+01 1.661473e+00) (-1.899710e-02 6.125508e-01 -2.523495e-04) (0.000000e+00 0.000000e+00 0.000000e+00)) ((-1.778025e+00 -1.863736e+01 2.283720e+02) (-5.385891e-01 -1.651593e-02 6.306457e+00) (0.000000e+00 0.000000e+00 0.000000e+00))
7.75e-05      	((-3.009678e+00 1.979580e+01 1.724947e+00) (-1.912665e-02 6.111240e-01 -5.954335e-04) (0.000000e+00 0.000000e+00 0.000000e+00)) ((-1.060780e+00 -1.933441e+01 2.279797e+02) (-5.410540e-01 -1.323139e-02 6.293487e+00) (0.000000e+00 0.000000e+00 0.000000e+00))
8e-05         	((-3.056083e+00 1.977183e+01 1.813891e+00) (-1.920772e-02 6.098298e-01 -9.400748e-04) (0.000000e+00 0.000000e+00 0.000000e+00)) ((-1.582961e-01 -2.027743e+01 2.281944e+02) (-5.436833e-01 -9.884183e-03 6.281320e+00) (0.000000e+00 0.000000e+00 0.000000e+00))
8.25e-05      	((-3.083324e+00 1.980545e+01 1.909369e+00) (-1.925481e-02 6.086753e-01 -1.225888e-03) (0.000000e+00 0.000000e+00 0.000000e+00)) ((7.506537e-01 -2.126998e+01 2.287878e+02) (-5.458600e-01 -7.094009e-03 6.270189e+00) (0.000000e+00 0.000000e+00 0.000000e+00))
8.5e-05       	((-3.089189e+00 1.986171e+01 1.999636e+00) (-1.928711e-02 6.076008e-01 -1.443234e-03) (0.000000e+00 0.000000e+00 0.000000e+00)) ((1.582875e+00 -2.219207e+01 2.293895e+02) (-5.474205e-01 -4.970165e-03 6.259702e+00) (0.000000e+00 0.000000e+00 0.000000e+00))
8.75e-05      	((-3.079138e+00 1.991330e+01 2.086012e+00) (-1.934614e-02 6.065839e-01 -1.609924e-03) (0.000000e+00 0.000000e+00 0.000000e+00)) ((2.380910e+00 -2.306122e+01 2.297837e+02) (-5.485226e-01 -3.380469e-03 6.250058e+00) (0.000000e+00 0.000000e+00 0.000000e+00))
9e-05         	((-3.063547e+00 1.994962e+01 2.172057e+00) (-1.937442e-02 6.056427e-01 -1.763998e-03) (0.000000e+00 0.000000e+00 0.000000e+00)) ((3.193128e+00 -2.392195e+01 2.299711e+02) (-5.495672e-01 -1.895452e-03 6.240854e+00) (0.000000e+00 0.000000e+00 0.000000e+00))
9.25e-05      	((-3.051261e+00 1.997157e+01 2.257619e+00) (-1.938894e-02 6.047531e-01 -1.886406e-03) (0.000000e+00 0.000000e+00 0.000000e+00)) ((4.018054e+00 -2.478034e+01 2.300515e+02) (-5.503324e-01 -7.116091e-04 6.232027e+00) (0.000000e+00 0.000000e+00 0.000000e+00))
9.5e-05       	((-3.045802e+00 1.998630e+01 2.340096e+00) (-1.941096e-02 6.039130e-01 -1.978617e-03) (0.000000e+00 0.000000e+00 0.000000e+00)) ((4.821776e+00 -2.561330e+01 2.301326e+02) (-5.508319e-01 1.736655e-04 6.223788e+00) (0.000000e+00 0.000000e+00 0.000000e+00))
9.75e-05      	((-3.047939e+00 2.000101e+01 2.415429e+00) (-1.946690e-02 6.031834e-01 -2.069214e-03) (0.000000e+00 0.000000e+00 0.000000e+00)) ((5.555632e+00 -2.638090e+01 2.302940e+02) (-5.514006e-01 1.026473e-03 6.217010e+00) (0.000000e+00 0.000000e+00 0.000000e+00))
0.0001        	((-3.057276e+00 2.001959e+01 2.479394e+00) (-1.954379e-02 6.026021e-01 -2.156821e-03) (0.000000e+00 0.000000e+00 0.000000e+00)) ((6.173139e+00 -2.704080e+01 2.305702e+02) (-5.520547e-01 1.837862e-03 6.211942e+00) (0.000000e+00 0.000000e+00 0.000000e+00))
0.0001025     	((-3.074367e+00 2.004298e+01 2.531637e+00) (-1.963197e-02 6.021155e-01 -2.248022e-03) (0.000000e+00 0.000000e+00 0.000000e+00)) ((6.669567e+00 -2.758966e+01 2.309759e+02) (-5.528286e-01 2.686605e-03 6.207961e+00) (0.000000e+00 0.000000e+00 0.000000e+00))
0.000105      	((-3.097995e+00 2.006938e+01 2.574058e+00) (-1.976191e-02 6.017259e-01 -2.330698e-03) (0.000000e+00 0.000000e+00 0.000000e+00)) ((7.065469e+00 -2.804501e+01 2.314802e+02) (-5.535836e-01 3.439195e-03 6.205397e+00) (0.000000e+00 0.000000e+00 0.000000e+00))
0.0001075     	((-3.126335e+00 2.009622e+01 2.608570e+00) (-1.991080e-02 6.014338e-01 -2.402359e-03) (0.000000e+00 0.000000e+00 0.000000e+00)) ((7.382270e+00 -2.842381e+01 2.320384e+02) (-5.543016e-01 4.062667e-03 6.204021e+00) (0.000000e+00 0.000000e+00 0.000000e+00))
0.00011       	((-3.157556e+00 2.012100e+01 2.636663e+00) (-2.009690e-02 6.012333e-01 -2.465343e-03) (0.000000e+00 0.000000e+00 0.000000e+00)) ((7.637091e+00 -2.873901e+01 2.326066e+02) (-5.550159e-01 4.569178e-03 6.203952e+00) (0.000000e+00 0.000000e+00 0.000000e+00))
0.0001125     	((-3.189059e+00 2.014244e+01 2.658954e+00) (-2.030764e-02 6.011172e-01 -2.516901e-03) (0.000000e+00 0.000000e+00 0.000000e+00)) ((7.837097e+00 -2.899483e+01 2.331450e+02) (-5.556805e-01 4.935619e-03 6.204988e+00) (0.000000e+00 0.000000e+00 0.000000e+00))
0.000115      	((-3.219101e+00 2.016133e+01 2.675845e+00) (-2.051940e-02 6.010300e-01 -2.551610e-03) (0.000000e+00 0.000000e+00 0.000000e+00)) ((7.985043e+00 -2.919386e+01 2.336429e+02) (-5.562170e-01 5.126127e-03 6.206335e+00) (0.000000e+00 0.000000e+00 0.000000e+00))
0.0001175     	((-3.244611e+00 2.017747e+01 2.686423e+00) (-2.074103e-02 6.009705e-01 -2.556434e-03) (0.000000e+00 0.000000e+00 0.000000e+00)) ((8.071642e+00 -2.932502e+01 2.340672e+02) (-5.564711e-01 5.015813e-03 6.208071e+00) (0.000000e+00 0.000000e+00 0.000000e+00))
0.00012       	((-3.264229e+00 2.018993e+01 2.690578e+00) (-2.094986e-02 6.009352e-01 -2.543584e-03) (0.000000e+00 0.000000e+00 0.000000e+00)) ((8.096553e+00 -2.938638e+01 2.343940e+02) (-5.565680e-01 4.730471e-03 6.209927e+00) (0.000000e+00 0.000000e+00 0.000000e+00))
0.0001225     	((-3.278010e+00 2.019885e+01 2.689211e+00) (-2.115205e-02 6.009241e-01 -2.517403e-03) (0.000000e+00 0.000000e+00 0.000000e+00)) ((8.068603e+00 -2.938718e+01 2.346255e+02) (-5.565563e-01 4.317952e-03 6.211952e+00) (0.000000e+00 0.000000e+00 0.000000e+00))
0.000125      	((-3.285815e+00 2.020480e+01 2.683684e+00) (-2.132518e-02 6.009173e-01 -2.476822e-03) (0.000000e+00 0.000000e+00 0.000000e+00)) ((8.001012e+00 -2.934107e+01 2.347657e+02) (-5.563979e-01 3.783729e-03 6.213722e+00) (0.000000e+00 0.000000e+00 0.000000e+00))
0.0001275     	((-3.288093e+00 2.020820e+01 2.675180e+00) (-2.146815e-02 6.008691e-01 -2.421567e-03) (0.000000e+00 0.000000e+00 0.000000e+00)) ((7.905346e+00 -2.926014e+01 2.348235e+02) (-5.560562e-01 3.124603e-03 6.214771e+00) (0.000000e+00 0.000000e+00 0.000000e+00))
0.00013       	((-3.285166e+00 2.021023e+01 2.663524e+00) (-2.158866e-02 6.007899e-01 -2.348743e-03) (0.000000e+00 0.000000e+00 0.000000e+00)) ((7.779000e+00 -2.914332e+01 2.348141e+02) (-5.554802e-01 2.310385e-03 6.215278e+00) (0.000000e+00 0.000000e+00 0.000000e+00))
0.0001325     	((-3.279220e+00 2.021192e+01 2.649572e+00) (-2.165862e-02 6.006451e-01 -2.277825e-03) (0.000000e+00 0.000000e+00 0.000000e+00)) ((7.629703e+00 -2.900079e+01 2.347700e+02) (-5.548626e-01 1.550911e-03 6.214609e+00) (0.000000e+00 0.000000e+00 0.000000e+00))
0.000135      	((-3.271285e+00 2.021368e+01 2.633053e+00) (-2.171138e-02 6.004522e-01 -2.207233e-03) (0.000000e+00 0.000000e+00 0.000000e+00)) ((7.454512e+00 -2.883092e+01 2.347062e+02) (-5.541840e-01 8.243982e-04 6.213277e+00) (0.000000e+00 0.000000e+00 0.000000e+00))
0.0001375     	((-3.262810e+00 2.021669e+01 2.615123e+00) (-2.172811e-02 6.002097e-01 -2.124639e-03) (0.000000e+00 0.000000e+00 0.000000e+00)) ((7.264064e+00 -2.864673e+01 2.346491e+02) (-5.533068e-01 9.172414e-06 6.211076e+00) (0.000000e+00 0.000000e+00 0.000000e+00))
0.00014       	((-3.256103e+00 2.022180e+01 2.599355e+00) (-2.170055e-02 5.998779e-01 -2.028145e-03) (0.000000e+00 0.000000e+00 0.000000e+00)) ((7.093514e+00 -2.848599e+01 2.346304e+02) (-5.522022e-01 -9.070688e-04 6.207530e+00) (0.000000e+00 0.000000e+00 0.000000e+00))
0.0001425     	((-3.252791e+00 2.022946e+01 2.588484e+00) (-2.165889e-02 5.995220e-01 -1.929992e-03) (0.000000e+00 0.000000e+00 0.000000e+00)) ((6.970318e+00 -2.837803e+01 2.346712e+02) (-5.510224e-01 -1.817136e-03 6.203585e+00) (0.000000e+00 0.000000e+00 0.000000e+00))
0.000145      	((-3.254821e+00 2.023907e+01 2.585353e+00) (-2.158331e-02 5.991184e-01 -1.821278e-03) (0.000000e+00 0.000000e+00 0.000000e+00)) ((6.923878e+00 -2.835311e+01 2.347852e+02) (-5.496795e-01 -2.807753e-03 6.198799e+00) (0.000000e+00 0.000000e+00 0.000000e+00))
0.0001475     	((-3.262624e+00 2.024960e+01 2.589541e+00) (-2.148381e-02 5.987001e-01 -1.696375e-03) (0.000000e+00 0.000000e+00 0.000000e+00)) ((6.951342e+00 -2.840792e+01 2.349662e+02) (-5.481249e-01 -3.931186e-03 6.193604e+00) (0.000000e+00 0.000000e+00 0.000000e+00))
0.00015       	((-3.277408e+00 2.025954e+01 2.600924e+00) (-2.133293e-02 5.982121e-01 -1.581005e-03) (0.000000e+00 0.000000e+00 0.000000e+00)) ((7.053066e+00 -2.854209e+01 2.352117e+02) (-5.465953e-01 -4.919138e-03 6.187170e+00) (0.000000e+00 0.000000e+00 0.000000e+00))
0.0001525     	((-3.299169e+00 2.026748e+01 2.618522e+00) (-2.118991e-02 5.976871e-01 -1.488644e-03) (0.000000e+00 0.000000e+00 0.000000e+00)) ((7.220608e+00 -2.874598e+01 2.355077e+02) (-5.452445e-01 -5.662706e-03 6.180424e+00) (0.000000e+00 0.000000e+00 0.000000e+00))
0.000155      	((-3.327341e+00 2.027286e+01 2.639954e+00) (-2.103630e-02 5.971540e-01 -1.423080e-03) (0.000000e+00 0.000000e+00 0.000000e+00)) ((7.430573e+00 -2.899542e+01 2.358430e+02) (-5.441346e-01 -6.140304e-03 6.173478e+00) (0.000000e+00 0.000000e+00 0.000000e+00))
0.0001575     	((-3.362515e+00 2.027617e+01 2.664257e+00) (-2.091189e-02 5.965994e-01 -1.387983e-03) (0.000000e+00 0.000000e+00 0.000000e+00)) ((7.672455e+00 -2.928071e+01 2.362287e+02) (-5.433222e-01 -6.346781e-03 6.166609e+00) (0.000000e+00 0.000000e+00 0.000000e+00))
0.00016       	((-3.403923e+00 2.027813e+01 2.690001e+00) (-2.085212e-02 5.960839e-01 -1.378532e-03) (0.000000e+00 0.000000e+00 0.000000e+00)) ((7.930739e+00 -2.958664e+01 2.366647e+02) (-5.428002e-01 -6.354281e-03 6.160787e+00) (0.000000e+00 0.000000e+00 0.000000e+00))
0.0001625     	((-3.449847e+00 2.027861e+01 2.716793e+00) (-2.084188e-02 5.956185e-01 -1.371343e-03) (0.000000e+00 0.000000e+00 0.000000e+00)) ((8.201157e+00 -2.990729e+01 2.371323e+02) (-5.423434e-01 -6.385638e-03 6.155980e+00) (0.000000e+00 0.000000e+00 0.000000e+00))
0.000165      	((-3.497729e+00 2.027831e+01 2.743441e+00) (-2.087837e-02 5.952427e-01 -1.363100e-03) (0.000000e+00 0.000000e+00 0.000000e+00)) ((8.470883e+00 -3.022796e+01 2.376128e+02) (-5.419505e-01 -6.484279e-03 6.152554e+00) (0.000000e+00 0.000000e+00 0.000000e+00))
0.0001675     	((-3.544823e+00 2.027841e+01 2.768715e+00) (-2.098157e-02 5.949473e-01 -1.349814e-03) (0.000000e+00 0.000000e+00 0.000000e+00)) ((8.726033e+00 -3.053283e+01 2.380900e+02) (-5.415933e-01 -6.706275e-03 6.150623e+00) (0.000000e+00 0.000000e+00 0.000000e+00))
0.00017       	((-3.588074e+00 2.027916e+01 2.790690e+00) (-2.115562e-02 5.947508e-01 -1.324549e-03) (0.000000e+00 0.000000e+00 0.000000e+00)) ((8.946806e+00 -3.079957e+01 2.385358e+02) (-5.411933e-01 -7.112416e-03 6.150416e+00) (0.000000e+00 0.000000e+00 0.000000e+00))
0.0001725     	((-3.625658e+00 2.028039e+01 2.808512e+00) (-2.136701e-02 5.946179e-01 -1.279121e-03) (0.000000e+00 0.000000e+00 0.000000e+00)) ((9.124580e+00 -3.101751e+01 2.389297e+02) (-5.406481e-01 -7.766297e-03 6.151243e+00) (0.000000e+00 0.000000e+00 0.000000e+00))
0.000175      	((-3.655894e+00 2.028229e+01 2.821429e+00) (-2.161432e-02 5.945488e-01 -1.213698e-03) (0.000000e+00 0.000000e+00 0.000000e+00)) ((9.251583e+00 -3.117750e+01 2.392567e+02) (-5.399530e-01 -8.656164e-03 6.153090e+00) (0.000000e+00 0.000000e+00 0.000000e+00))
0.0001775     	((-3.678560e+00 2.028462e+01 2.829627e+00) (-2.186294e-02 5.945152e-01 -1.135780e-03) (0.000000e+00 0.000000e+00 0.000000e+00)) ((9.329844e+00 -3.128102e+01 2.395119e+02) (-5.391707e-01 -9.676140e-03 6.155320e+00) (0.000000e+00 0.000000e+00 0.000000e+00))
0.00018       	((-3.693331e+00 2.028673e+01 2.832553e+00) (-2.211055e-02 5.945221e-01 -1.051564e-03) (0.000000e+00 0.000000e+00 0.000000e+00)) ((9.354726e+00 -3.132290e+01 2.396853e+02) (-5.383421e-01 -1.075316e-02 6.157951e+00) (0.000000e+00 0.000000e+00 0.000000e+00))
0.0001825     	((-3.701198e+00 2.028752e+01 2.831676e+00) (-2.232083e-02 5.945048e-01 -9.723134e-04) (0.000000e+00 0.000000e+00 0.000000e+00)) ((9.342238e+00 -3.131876e+01 2.397760e+02) (-5.375518e-01 -1.175340e-02 6.159967e+00) (0.000000e+00 0.000000e+00 0.000000e+00))
0.000185      	((-3.702237e+00 2.028613e+01 2.827908e+00) (-2.251386e-02 5.944503e-01 -9.064418e-04) (0.000000e+00 0.000000e+00 0.000000e+00)) ((9.302461e+00 -3.127840e+01 2.397759e+02) (-5.368664e-01 -1.258587e-02 6.161441e+00) (0.000000e+00 0.000000e+00 0.000000e+00))
0.0001875     	((-3.696594e+00 2.028327e+01 2.821700e+00) (-2.266123e-02 5.943975e-01 -8.605956e-04) (0.000000e+00 0.000000e+00 0.000000e+00)) ((9.239537e+00 -3.120711e+01 2.396935e+02) (-5.363727e-01 -1.318167e-02 6.162466e+00) (0.000000e+00 0.000000e+00 0.000000e+00))
0.00019       	((-3.685172e+00 2.028005e+01 2.815077e+00) (-2.276174e-02 5.943212e-01 -8.394186e-04) (0.000000e+00 0.000000e+00 0.000000e+00)) ((9.173017e+00 -3.112603e+01 2.395488e+02) (-5.361219e-01 -1.349132e-02 6.162773e+00) (0.000000e+00 0.000000e+00 0.000000e+00))
0.0001925     	((-3.668864e+00 2.027781e+01 2.809264e+00) (-2.283157e-02 5.942326e-01 -8.431682e-04) (0.000000e+00 0.000000e+00 0.000000e+00)) ((9.113997e+00 -3.104880e+01 2.393642e+02) (-5.361091e-01 -1.350710e-02 6.162636e+00) (0.000000e+00 0.000000e+00 0.000000e+00))
0.000195      	((-3.648919e+00 2.027798e+01 2.804261e+00) (-2.283373e-02 5.941321e-01 -8.663682e-04) (0.000000e+00 0.000000e+00 0.000000e+00)) ((9.061215e+00 -3.097732e+01 2.391663e+02) (-5.362751e-01 -1.327735e-02 6.161686e+00) (0.000000e+00 0.000000e+00 0.000000e+00))
0.0001975     	((-3.629033e+00 2.028047e+01 2.802880e+00) (-2.278727e-02 5.939785e-01 -9.187180e-04) (0.000000e+00 0.000000e+00 0.000000e+00)) ((9.043245e+00 -3.094312e+01 2.389917e+02) (-5.367072e-01 -1.271919e-02 6.159704e+00) (0.000000e+00 0.000000e+00 0.000000e+00))
0.0002        	((-3.612025e+00 2.028516e+01 2.806372e+00) (-2.271288e-02 5.937924e-01 -9.994308e-04) (0.000000e+00 0.000000e+00 0.000000e+00)) ((9.072829e+00 -3.096176e+01 2.388677e+02) (-5.373979e-01 -1.184539e-02 6.157100e+00) (0.000000e+00 0.000000e+00 0.000000e+00))
0.0002025     	((-3.599487e+00 2.029071e+01 2.814257e+00) (-2.263883e-02 5.935918e-01 -1.096300e-03) (0.000000e+00 0.000000e+00 0.000000e+00)) ((9.146428e+00 -3.103017e+01 2.387969e+02) (-5.382344e-01 -1.081286e-02 6.154345e+00) (0.000000e+00 0.000000e+00 0.000000e+00))
0.000205      	((-3.592375e+00 2.029627e+01 2.826137e+00) (-2.256956e-02 5.933642e-01 -1.192788e-03) (0.000000e+00 0.000000e+00 0.000000e+00)) ((9.260747e+00 -3.114522e+01 2.387805e+02) (-5.390450e-01 -9.798840e-03 6.151367e+00) (0.000000e+00 0.000000e+00 0.000000e+00))
0.0002075     	((-3.590553e+00 2.030045e+01 2.841702e+00) (-2.251543e-02 5.930913e-01 -1.264875e-03) (0.000000e+00 0.000000e+00 0.000000e+00)) ((9.413853e+00 -3.130343e+01 2.388035e+02) (-5.395745e-01 -9.048722e-03 6.148093e+00) (0.000000e+00 0.000000e+00 0.000000e+00))
0.00021       	((-3.592841e+00 2.030427e+01 2.859652e+00) (-2.248675e-02 5.928453e-01 -1.324003e-03) (0.000000e+00 0.000000e+00 0.000000e+00)) ((9.591448e+00 -3.149051e+01 2.388639e+02) (-5.399960e-01 -8.461615e-03 6.145342e+00) (0.000000e+00 0.000000e+00 0.000000e+00))
0.0002125     	((-3.598400e+00 2.030778e+01 2.878693e+00) (-2.249110e-02 5.926330e-01 -1.368871e-03) (0.000000e+00 0.000000e+00 0.000000e+00)) ((9.780163e+00 -3.169214e+01 2.389540e+02) (-5.403201e-01 -8.053873e-03 6.143258e+00) (0.000000e+00 0.000000e+00 0.000000e+00))
0.000215      	((-3.605739e+00 2.031032e+01 2.896668e+00) (-2.251539e-02 5.924763e-01 -1.391048e-03) (0.000000e+00 0.000000e+00 0.000000e+00)) ((9.958975e+00 -3.188530e+01 2.390521e+02) (-5.404569e-01 -7.896660e-03 6.141931e+00) (0.000000e+00 0.000000e+00 0.000000e+00))
0.0002175     	((-3.614454e+00 2.031128e+01 2.913055e+00) (-2.254184e-02 5.923329e-01 -1.394336e-03) (0.000000e+00 0.000000e+00 0.000000e+00)) ((1.012304e+01 -3.206353e+01 2.391484e+02) (-5.404369e-01 -7.941559e-03 6.140762e+00) (0.000000e+00 0.000000e+00 0.000000e+00))
0.00022       	((-3.623132e+00 2.031005e+01 2.926975e+00) (-2.259792e-02 5.922083e-01 -1.377746e-03) (0.000000e+00 0.000000e+00 0.000000e+00)) ((1.026413e+01 -3.221663e+01 2.392224e+02) (-5.402333e-01 -8.201698e-03 6.140082e+00) (0.000000e+00 0.000000e+00 0.000000e+00))
0.0002225     	((-3.630655e+00 2.030643e+01 2.937827e+00) (-2.265733e-02 5.921050e-01 -1.338689e-03) (0.000000e+00 0.000000e+00 0.000000e+00)) ((1.037646e+01 -3.233749e+01 2.392607e+02) (-5.398070e-01 -8.690775e-03 6.139650e+00) (0.000000e+00 0.000000e+00 0.000000e+00))
0.000225      	((-3.636937e+00 2.030063e+01 2.946399e+00) (-2.271029e-02 5.919766e-01 -1.280567e-03) (0.000000e+00 0.000000e+00 0.000000e+00)) ((1.046776e+01 -3.243359e+01 2.392650e+02) (-5.391695e-01 -9.366096e-03 6.138902e+00) (0.000000e+00 0.000000e+00 0.000000e+00))
0.0002275     	((-3.641467e+00 2.029365e+01 2.952278e+00) (-2.276259e-02 5.918497e-01 -1.208468e-03) (0.000000e+00 0.000000e+00 0.000000e+00)) ((1.053310e+01 -3.250060e+01 2.392397e+02) (-5.383753e-01 -1.017335e-02 6.138161e+00) (0.000000e+00 0.000000e+00 0.000000e+00))
0.00023       	((-3.644443e+00 2.028598e+01 2.955872e+00) (-2.278093e-02 5.916630e-01 -1.124412e-03) (0.000000e+00 0.000000e+00 0.000000e+00)) ((1.057597e+01 -3.254253e+01 2.391920e+02) (-5.374195e-01 -1.107517e-02 6.136486e+00) (0.000000e+00 0.000000e+00 0.000000e+00))
0.0002325     	((-3.645521e+00 2.027840e+01 2.956748e+00) (-2.281308e-02 5.914753e-01 -1.043237e-03) (0.000000e+00 0.000000e+00 0.000000e+00)) ((1.059126e+01 -3.255505e+01 2.391258e+02) (-5.364799e-01 -1.193912e-02 6.134934e+00) (0.000000e+00 0.000000e+00 0.000000e+00))
0.000235      	((-3.644507e+00 2.027124e+01 2.954231e+00) (-2.281776e-02 5.913089e-01 -9.562146e-04) (0.000000e+00 0.000000e+00 0.000000e+00)) ((1.057196e+01 -3.253167e+01 2.390428e+02) (-5.354842e-01 -1.284379e-02 6.133312e+00) (0.000000e+00 0.000000e+00 0.000000e+00))
0.0002375     	((-3.642561e+00 2.026414e+01 2.949656e+00) (-2.280014e-02 5.911079e-01 -8.688967e-04) (0.000000e+00 0.000000e+00 0.000000e+00)) ((1.053198e+01 -3.248658e+01 2.389509e+02) (-5.344634e-01 -1.373119e-02 6.131116e+00) (0.000000e+00 0.000000e+00 0.000000e+00))
0.00024       	((-3.640096e+00 2.025668e+01 2.944002e+00) (-2.278503e-02 5.909013e-01 -7.839356e-04) (0.000000e+00 0.000000e+00 0.000000e+00)) ((1.048167e+01 -3.243028e+01 2.388500e+02) (-5.334528e-01 -1.458419e-02 6.128887e+00) (0.000000e+00 0.000000e+00 0.000000e+00))
0.0002425     	((-3.637520e+00 2.024866e+01 2.937873e+00) (-2.276124e-02 5.907001e-01 -6.980097e-04) (0.000000e+00 0.000000e+00 0.000000e+00)) ((1.042738e+01 -3.236952e+01 2.387423e+02) (-5.324223e-01 -1.543613e-02 6.126621e+00) (0.000000e+00 0.000000e+00 0.000000e+00))
0.000245      	((-3.635698e+00 2.024013e+01 2.932364e+00) (-2.272934e-02 5.904844e-01 -6.131496e-04) (0.000000e+00 0.000000e+00 0.000000e+00)) ((1.038010e+01 -3.231589e+01 2.386371e+02) (-5.313904e-01 -1.627076e-02 6.124126e+00) (0.000000e+00 0.000000e+00 0.000000e+00))
0.0002475     	((-3.634565e+00 2.023180e+01 2.926887e+00) (-2.269640e-02 5.902864e-01 -5.204057e-04) (0.000000e+00 0.000000e+00 0.000000e+00)) ((1.033340e+01 -3.226378e+01 2.385407e+02) (-5.302757e-01 -1.718081e-02 6.121797e+00) (0.000000e+00 0.000000e+00 0.000000e+00))
0.00025       	((-3.634922e+00 2.022411e+01 2.922262e+00) (-2.264977e-02 5.900627e-01 -4.246752e-04) (0.000000e+00 0.000000e+00 0.000000e+00)) ((1.029498e+01 -3.222170e+01 2.384659e+02) (-5.291133e-01 -1.811706e-02 6.119074e+00) (0.000000e+00 0.000000e+00 0.000000e+00))
0.0002525     	((-3.636266e+00 2.021693e+01 2.918166e+00) (-2.261202e-02 5.898175e-01 -3.184653e-04) (0.000000e+00 0.000000e+00 0.000000e+00)) ((1.026150e+01 -3.218606e+01 2.384062e+02) (-5.278215e-01 -1.915536e-02 6.116231e+00) (0.000000e+00 0.000000e+00 0.000000e+00))
0.000255      	((-3.638225e+00 2.021020e+01 2.914134e+00) (-2.258302e-02 5.895941e-01 -2.149595e-04) (0.000000e+00 0.000000e+00 0.000000e+00)) ((1.022821e+01 -3.215184e+01 2.383573e+02) (-5.265576e-01 -2.017218e-02 6.113695e+00) (0.000000e+00 0.000000e+00 0.000000e+00))
0.0002575     	((-3.640519e+00 2.020398e+01 2.909836e+00) (-2.255925e-02 5.893925e-01 -1.105408e-04) (0.000000e+00 0.000000e+00 0.000000e+00)) ((1.019175e+01 -3.211533e+01 2.383170e+02) (-5.252931e-01 -2.120562e-02 6.111427e+00) (0.000000e+00 0.000000e+00 0.000000e+00))
0.00026       	((-3.642933e+00 2.019821e+01 2.905042e+00) (-2.253761e-02 5.891925e-01 -3.645381e-06) (0.000000e+00 0.000000e+00 0.000000e+00)) ((1.014985e+01 -3.207371e+01 2.382826e+02) (-5.239974e-01 -2.226402e-02 6.109200e+00) (0.000000e+00 0.000000e+00 0.000000e+00))
0.0002625     	((-3.644932e+00 2.019298e+01 2.899244e+00) (-2.251475e-02 5.890040e-01 1.057645e-04) (0.000000e+00 0.000000e+00 0.000000e+00)) ((1.009741e+01 -3.202139e+01 2.382494e+02) (-5.226713e-01 -2.334585e-02 6.107080e+00) (0.000000e+00 0.000000e+00 0.000000e+00))
0.000265      	((-3.646479e+00 2.018817e+01 2.892664e+00) (-2.249265e-02 5.888078e-01 2.144405e-04) (0.000000e+00 0.000000e+00 0.000000e+00)) ((1.003668e+01 -3.196028e+01 2.382161e+02) (-5.213434e-01 -2.441830e-02 6.104894e+00) (0.000000e+00 0.000000e+00 0.000000e+00))
0.0002675     	((-3.646793e+00 2.018406e+01 2.884451e+00) (-2.247174e-02 5.886458e-01 3.203643e-04) (0.000000e+00 0.000000e+00 0.000000e+00)) ((9.958917e+00 -3.188148e+01 2.381774e+02) (-5.200486e-01 -2.546143e-02 6.103066e+00) (0.000000e+00 0.000000e+00 0.000000e+00))
0.00027       	((-3.646510e+00 2.018062e+01 2.875436e+00) (-2.243845e-02 5.884738e-01 4.216632e-04) (0.000000e+00 0.000000e+00 0.000000e+00)) ((9.872444e+00 -3.179339e+01 2.381395e+02) (-5.187971e-01 -2.645312e-02 6.101016e+00) (0.000000e+00 0.000000e+00 0.000000e+00))
0.0002725     	((-3.645312e+00 2.017765e+01 2.865653e+00) (-2.242576e-02 5.883119e-01 5.156030e-04) (0.000000e+00 0.000000e+00 0.000000e+00)) ((9.777733e+00 -3.169628e+01 2.380973e+02) (-5.176238e-01 -2.737687e-02 6.099275e+00) (0.000000e+00 0.000000e+00 0.000000e+00))
0.000275      	((-3.642919e+00 2.017469e+01 2.854878e+00) (-2.240197e-02 5.881520e-01 6.146214e-04) (0.000000e+00 0.000000e+00 0.000000e+00)) ((9.672939e+00 -3.158787e+01 2.380431e+02) (-5.163929e-01 -2.834382e-02 6.097449e+00) (0.000000e+00 0.000000e+00 0.000000e+00))