# Forces      
# CofR        : (0.000000e+00 0.000000e+00 0.000000e+00)
# Time        forces(pressure viscous porous)	moments(pressure viscous porous)
2.5e-06       	((3.997142e-01 1.660964e+01 5.334330e-02) (1.158343e-03 4.897437e-01 -4.488293e-03) (0.000000e+00 0.000000e+00 0.000000e+00)) ((-1.380049e+01 1.680531e-01 1.621405e+02) (-4.953209e-01 4.389461e-02 4.876026e+00) (0.000000e+00 0.000000e+00 0.000000e+00))
5e-06         	((-1.900215e-01 7.573254e+01 -2.845455e+00) (4.878126e-03 6.624028e-01 -9.247588e-03) (0.000000e+00 0.000000e+00 0.000000e+00)) ((-9.326222e+01 2.919918e+01 7.590951e+02) (-6.429159e-01 9.522728e-02 6.562867e+00) (0.000000e+00 0.000000e+00 0.000000e+00))
7.5e-06       	((-8.741184e+00 1.325117e+02 -8.394153e+00) (1.449843e-02 6.050426e-01 -1.140299e-02) (0.000000e+00 0.000000e+00 0.000000e+00)) ((-2.026046e+02 7.671929e+01 1.413231e+03) (-5.958959e-01 1.237579e-01 5.895080e+00) (0.000000e+00 0.000000e+00 0.000000e+00))
1e-05         	((-3.206832e+00 3.973934e+01 -2.153547e+01) (2.454856e-02 5.207060e-01 -1.089090e-02) (0.000000e+00 0.000000e+00 0.000000e+00)) ((-2.637349e+02 2.139940e+02 4.323821e+02) (-5.117431e-01 1.280689e-01 4.949101e+00) (0.000000e+00 0.000000e+00 0.000000e+00))
1.25e-05      	((1.057806e+01 1.318907e+01 -5.438701e+00) (3.095247e-02 1.094402e+00 2.279015e-01) (0.000000e+00 0.000000e+00 0.000000e+00)) ((-6.528303e+01 6.482021e+01 2.623247e+01) (1.580847e+00 -2.253346e+00 1.059554e+01) (0.000000e+00 0.000000e+00 0.000000e+00))
1.5e-05       	((1.665923e+01 2.032369e+02 5.882048e+01) (6.000722e-02 1.485087e+00 3.972704e-01) (0.000000e+00 0.000000e+00 0.000000e+00)) ((4.867901e+02 -5.737417e+02 1.855556e+03) (3.085251e+00 -3.925514e+00 1.419442e+01) (0.000000e+00 0.000000e+00 0.000000e+00))
1.75e-05      	((-5.657834e-01 1.953651e+02 5.052894e+01) (3.604807e-02 5.827567e-01 3.330010e-02) (0.000000e+00 0.000000e+00 0.000000e+00)) ((4.008249e+02 -5.036157e+02 1.951512e+03) (-1.185694e-01 -3.105249e-01 5.450274e+00) (0.000000e+00 0.000000e+00 0.000000e+00))
2e-05         	((-4.577027e+00 8.838056e+01 1.754803e+01) (1.367629e-02 -8.192745e-01 -4.939497e-01) (0.000000e+00 0.000000e+00 0.000000e+00)) ((1.201936e+02 -1.783192e+02 9.269776e+02) (-4.705065e+00 4.930678e+00 -8.288533e+00) (0.000000e+00 0.000000e+00 0.000000e+00))
2.25e-05      	((-1.090956e+01 -2.229026e+02 -6.656124e+01) (-7.090496e-02 -1.340067e+00 -6.861120e-01) (0.000000e+00 0.000000e+00 0.000000e+00)) ((-5.645993e+02 6.568297e+02 -2.107814e+03) (-6.371079e+00 6.798802e+00 -1.261433e+01) (0.000000e+00 0.000000e+00 0.000000e+00))
2.5e-05       	((4.952510e+00 -2.111224e+02 -5.848519e+01) (-8.316295e-03 3.848176e-01 -2.468667e-02) (0.000000e+00 0.000000e+00 0.000000e+00)) ((-4.860662e+02 5.854231e+02 -2.151611e+03) (-5.723281e-01 2.417146e-01 3.928070e+00) (0.000000e+00 0.000000e+00 0.000000e+00))
2.75e-05      	((2.026659e+01 -9.583537e+01 -2.136885e+01) (-3.139894e-02 1.849797e+00 4.657944e-01) (0.000000e+00 0.000000e+00 0.000000e+00)) ((-1.665428e+02 2.242423e+02 -1.158941e+03) (3.636980e+00 -4.657257e+00 1.873987e+01) (0.000000e+00 0.000000e+00 0.000000e+00))
3e-05         	((5.291883e+01 1.732337e+02 5.109534e+01) (3.227413e-03 1.833085e+00 3.531547e-01) (0.000000e+00 0.000000e+00 0.000000e+00)) ((4.261137e+02 -4.798938e+02 1.185633e+03) (2.501707e+00 -3.522618e+00 1.822981e+01) (0.000000e+00 0.000000e+00 0.000000e+00))
3.25e-05      	((2.883232e+01 4.475789e+02 1.168597e+02) (-6.804715e-02 1.818649e+00 3.669728e-01) (0.000000e+00 0.000000e+00 0.000000e+00)) ((9.437452e+02 -1.147316e+03 4.161523e+03) (2.634875e+00 -3.693606e+00 1.882147e+01) (0.000000e+00 0.000000e+00 0.000000e+00))
3.5e-05       	((-7.322239e+00 3.061361e+02 6.376107e+01) (1.123040e-02 7.535370e-01 1.568170e-01) (0.000000e+00 0.000000e+00 0.000000e+00)) ((4.784394e+02 -6.386575e+02 3.122577e+03) (1.082067e+00 -1.556918e+00 7.406428e+00) (0.000000e+00 0.000000e+00 0.000000e+00))
3.75e-05      	((-4.142873e+01 1.153551e+02 1.225034e+01) (-4.836082e-02 -3.295274e-02 -7.657226e-03) (0.000000e+00 0.000000e+00 0.000000e+00)) ((5.739306e+01 -1.449433e+02 1.571884e+03) (-1.793217e-01 4.963417e-02 1.733621e-01) (0.000000e+00 0.000000e+00 0.000000e+00))
4e-05         	((-1.281331e+01 -1.264751e+02 -4.921456e+01) (-1.286960e-01 -5.559016e-01 -7.855953e-02) (0.000000e+00 0.000000e+00 0.000000e+00)) ((-4.363989e+02 4.828291e+02 -1.127757e+03) (-6.414488e-01 7.134921e-01 -4.222579e+00) (0.000000e+00 0.000000e+00 0.000000e+00))
4.25e-05      	((3.416978e+00 -1.345300e+02 -4.172377e+01) (-1.425798e-01 2.280401e-01 1.784291e-02) (0.000000e+00 0.000000e+00 0.000000e+00)) ((-3.559187e+02 4.175067e+02 -1.374028e+03) (-5.798988e-02 -2.537619e-01 3.724225e+00) (0.000000e+00 0.000000e+00 0.000000e+00))
4.5e-05       	((2.229657e+01 -5.295697e+01 -1.366566e+01) (-1.021299e-01 1.234501e+00 3.873944e-01) (0.000000e+00 0.000000e+00 0.000000e+00)) ((-1.139097e+02 1.483835e+02 -7.537825e+02) (3.156713e+00 -3.915008e+00 1.333636e+01) (0.000000e+00 0.000000e+00 0.000000e+00))
4.75e-05      	((1.441030e+01 1.504482e+02 5.308446e+01) (-3.836480e-03 1.245423e+00 1.593757e-01) (0.000000e+00 0.000000e+00 0.000000e+00)) ((4.541286e+02 -5.207058e+02 1.351921e+03) (8.610956e-01 -1.589975e+00 1.245580e+01) (0.000000e+00 0.000000e+00 0.000000e+00))
5e-05         	((-1.713625e+01 2.001911e+02 6.127723e+01) (-1.799999e-02 7.660825e-01 1.455462e-01) (0.000000e+00 0.000000e+00 0.000000e+00)) ((5.106842e+02 -6.190081e+02 2.168168e+03) (9.742779e-01 -1.460253e+00 7.822914e+00) (0.000000e+00 0.000000e+00 0.000000e+00))
5.25e-05      	((-3.181505e+01 9.585615e+01 2.634470e+01) (-9.390949e-02 3.324648e-02 -9.322153e-02) (0.000000e+00 0.000000e+00 0.000000e+00)) ((2.120652e+02 -2.794710e+02 1.279505e+03) (-1.063497e+00 8.797274e-01 1.292264e+00) (0.000000e+00 0.000000e+00 0.000000e+00))
5.5e-05       	((-3.140551e+01 1.389282e+01 6.348854e-02) (-1.840830e-01 -1.032219e+00 -3.883235e-01) (0.000000e+00 0.000000e+00 0.000000e+00)) ((-1.133774e+01 -1.763821e+01 4.592998e+02) (-3.505713e+00 3.772661e+00 -8.399986e+00) (0.000000e+00 0.000000e+00 0.000000e+00))
5.75e-05      	((-1.525066e+01 -4.951578e+01 -2.086817e+01) (-1.344386e-01 -5.198357e-01 -1.847005e-01) (0.000000e+00 0.000000e+00 0.000000e+00)) ((-1.899333e+02 1.998156e+02 -3.371948e+02) (-1.717677e+00 1.770308e+00 -3.805255e+00) (0.000000e+00 0.000000e+00 0.000000e+00))
6e-05         	((3.833751e+00 -2.832461e+01 -1.431267e+01) (-3.116940e-02 5.303253e-01 1.082788e-01) (0.000000e+00 0.000000e+00 0.000000e+00)) ((-1.343697e+02 1.445946e+02 -3.204369e+02) (7.102172e-01 -1.096556e+00 5.608564e+00) (0.000000e+00 0.000000e+00 0.000000e+00))
6.25e-05      	((1.049700e+01 -1.798360e-01 -5.373776e+00) (1.420762e-02 7.599193e-01 1.770446e-01) (0.000000e+00 0.000000e+00 0.000000e+00)) ((-5.821810e+01 5.898500e+01 -1.076653e+02) (1.290517e+00 -1.756762e+00 7.434784e+00) (0.000000e+00 0.000000e+00 0.000000e+00))
6.5e-05       	((4.036337e+00 2.317130e+01 2.364947e+00) (5.004737e-02 6.712855e-01 1.278824e-01) (0.000000e+00 0.000000e+00 0.000000e+00)) ((8.084992e+00 -2.141217e+01 1.904112e+02) (8.436855e-01 -1.247536e+00 6.186900e+00) (0.000000e+00 0.000000e+00 0.000000e+00))
6.75e-05      	((-2.447204e+00 3.053558e+01 4.285715e+00) (1.546160e-02 5.716218e-01 9.442987e-02) (0.000000e+00 0.000000e+00 0.000000e+00)) ((2.357333e+01 -4.383459e+01 3.295626e+02) (5.578552e-01 -9.316515e-01 5.543984e+00) (0.000000e+00 0.000000e+00 0.000000e+00))
7e-05         	((-5.235714e+00 2.380527e+01 1.121381e+00) (5.723674e-04 5.004982e-01 6.040701e-02) (0.000000e+00 0.000000e+00 0.000000e+00)) ((-5.165922e+00 -1.380477e+01 2.908274e+02) (2.511967e-01 -6.011791e-01 4.987094e+00) (0.000000e+00 0.000000e+00 0.000000e+00))
7.25e-05      	((-4.754771e+00 1.765157e+01 -1.271839e+00) (-4.765377e-03 4.426637e-01 3.065627e-02) (0.000000e+00 0.000000e+00 0.000000e+00)) ((-2.628026e+01 1.017133e+01 2.245507e+02) (-1.895191e-02 -3.089868e-01 4.466703e+00) (0.000000e+00 0.000000e+00 0.000000e+00))
7.5e-05       	((-2.879114e+00 1.452230e+01 -1.830343e+00) (1.317004e-03 4.004237e-01 -1.061551e-02) (0.000000e+00 0.000000e+00 0.000000e+00)) ((-3.011073e+01 1.664833e+01 1.741472e+02) (-4.130694e-01 1.048116e-01 3.984616e+00) (0.000000e+00 0.000000e+00 0.000000e+00))
7.75e-05      	((-1.050434e+00 1.262320e+01 -1.620225e+00) (6.180164e-03 4.042571e-01 -1.098409e-02) (0.000000e+00 0.000000e+00 0.000000e+00)) ((-2.664239e+01 1.546505e+01 1.365762e+02) (-4.181809e-01 1.105896e-01 3.972814e+00) (0.000000e+00 0.000000e+00 0.000000e+00))
8e-05         	((-8.570546e-01 1.279941e+01 -8.878347e-01) (-3.412792e-04 4.236853e-01 2.488314e-03) (0.000000e+00 0.000000e+00 0.000000e+00)) ((-1.907676e+01 8.209838e+00 1.364251e+02) (-2.923021e-01 -2.731116e-02 4.232025e+00) (0.000000e+00 0.000000e+00 0.000000e+00))
8.25e-05      	((-1.468585e+00 1.287714e+01 -3.584588e-01) (-5.160665e-03 4.198567e-01 6.282933e-03) (0.000000e+00 0.000000e+00 0.000000e+00)) ((-1.368263e+01 2.589841e+00 1.434909e+02) (-2.514739e-01 -6.783827e-02 4.242374e+00) (0.000000e+00 0.000000e+00 0.000000e+00))
8.5e-05       	((-1.791198e+00 1.257831e+01 -3.095491e-01) (-8.924001e-03 4.122440e-01 3.979680e-03) (0.000000e+00 0.000000e+00 0.000000e+00)) ((-1.312165e+01 1.961063e+00 1.438143e+02) (-2.709315e-01 -4.721733e-02 4.204832e+00) (0.000000e+00 0.000000e+00 0.000000e+00))
8.75e-05      	((-1.657026e+00 1.318515e+01 -1.834900e-01) (-1.038981e-02 4.026192e-01 -2.157572e-03) (0.000000e+00 0.000000e+00 0.000000e+00)) ((-1.230866e+01 8.230170e-01 1.484562e+02) (-3.284186e-01 1.294046e-02 4.123937e+00) (0.000000e+00 0.000000e+00 0.000000e+00))
9e-05         	((-1.384349e+00 1.326463e+01 -1.974092e-01) (-7.851527e-03 3.926282e-01 -7.007366e-03) (0.000000e+00 0.000000e+00 0.000000e+00)) ((-1.258100e+01 1.145914e+00 1.464272e+02) (-3.726009e-01 6.249350e-02 3.998721e+00) (0.000000e+00 0.000000e+00 0.000000e+00))
9.25e-05      	((-1.186981e+00 1.301364e+01 -1.875693e-01) (-5.579081e-03 3.806427e-01 -1.334510e-02) (0.000000e+00 0.000000e+00 0.000000e+00)) ((-1.235915e+01 1.179446e+00 1.418930e+02) (-4.305692e-01 1.268062e-01 3.856348e+00) (0.000000e+00 0.000000e+00 0.000000e+00))
9.5e-05       	((-1.028055e+00 1.269464e+01 -1.226043e-01) (-4.398042e-03 3.682880e-01 -1.667556e-02) (0.000000e+00 0.000000e+00 0.000000e+00)) ((-1.149951e+01 6.448565e-01 1.371031e+02) (-4.576286e-01 1.605280e-01 3.721460e+00) (0.000000e+00 0.000000e+00 0.000000e+00))
9.75e-05      	((-8.248543e-01 1.219773e+01 -9.217914e-02) (-3.931395e-03 3.695973e-01 -1.402656e-02) (0.000000e+00 0.000000e+00 0.000000e+00)) ((-1.090205e+01 4.848874e-01 1.301281e+02) (-4.311996e-01 1.344315e-01 3.729925e+00) (0.000000e+00 0.000000e+00 0.000000e+00))
0.0001        	((-7.270121e-01 1.205083e+01 4.723264e-04) (-3.753659e-03 3.744299e-01 -1.078165e-02) (0.000000e+00 0.000000e+00 0.000000e+00)) ((-9.894140e+00 -3.487043e-01 1.277454e+02) (-4.005855e-01 1.022912e-01 3.776535e+00) (0.000000e+00 0.000000e+00 0.000000e+00))
0.0001025     	((-7.322495e-01 1.196921e+01 1.004678e-01) (-3.338010e-03 3.765832e-01 -9.120116e-03) (0.000000e+00 0.000000e+00 0.000000e+00)) ((-8.873760e+00 -1.314905e+00 1.270836e+02) (-3.845468e-01 8.607889e-02 3.794024e+00) (0.000000e+00 0.000000e+00 0.000000e+00))
0.000105      	((-7.721415e-01 1.216836e+01 2.761041e-01) (-3.775140e-03 3.726247e-01 -9.103201e-03) (0.000000e+00 0.000000e+00 0.000000e+00)) ((-7.242104e+00 -3.056102e+00 1.295624e+02) (-3.821674e-01 8.582447e-02 3.759296e+00) (0.000000e+00 0.000000e+00 0.000000e+00))
0.0001075     	((-8.754085e-01 1.225437e+01 4.219506e-01) (-3.597001e-03 3.679095e-01 -9.367160e-03) (0.000000e+00 0.000000e+00 0.000000e+00)) ((-5.836674e+00 -4.536453e+00 1.315276e+02) (-3.822337e-01 8.870442e-02 3.710691e+00) (0.000000e+00 0.000000e+00 0.000000e+00))
0.00011       	((-9.655280e-01 1.212851e+01 5.205799e-01) (-3.302341e-03 3.633899e-01 -9.882677e-03) (0.000000e+00 0.000000e+00 0.000000e+00)) ((-4.776304e+00 -5.544640e+00 1.312156e+02) (-3.849143e-01 9.414117e-02 3.662757e+00) (0.000000e+00 0.000000e+00 0.000000e+00))
0.0001125     	((-9.497697e-01 1.198509e+01 6.007976e-01) (-3.156248e-03 3.590388e-01 -1.028702e-02) (0.000000e+00 0.000000e+00 0.000000e+00)) ((-3.882241e+00 -6.317676e+00 1.296271e+02) (-3.865647e-01 9.836139e-02 3.617944e+00) (0.000000e+00 0.000000e+00 0.000000e+00))
0.000115      	((-8.805430e-01 1.181236e+01 6.421601e-01) (-3.282326e-03 3.551452e-01 -1.003639e-02) (0.000000e+00 0.000000e+00 0.000000e+00)) ((-3.367055e+00 -6.679458e+00 1.271906e+02) (-3.817278e-01 9.586663e-02 3.580398e+00) (0.000000e+00 0.000000e+00 0.000000e+00))
0.0001175     	((-8.053527e-01 1.174764e+01 6.801367e-01) (-3.087242e-03 3.578623e-01 -8.809907e-03) (0.000000e+00 0.000000e+00 0.000000e+00)) ((-2.954687e+00 -7.008729e+00 1.257684e+02) (-3.706592e-01 8.382068e-02 3.605424e+00) (0.000000e+00 0.000000e+00 0.000000e+00))
0.00012       	((-7.410194e-01 1.183085e+01 7.489552e-01) (-2.792624e-03 3.596164e-01 -7.616811e-03) (0.000000e+00 0.000000e+00 0.000000e+00)) ((-2.319469e+00 -7.654583e+00 1.259341e+02) (-3.594055e-01 7.213284e-02 3.619830e+00) (0.000000e+00 0.000000e+00 0.000000e+00))
0.0001225     	((-7.001706e-01 1.191343e+01 8.041424e-01) (-2.490647e-03 3.596075e-01 -6.816192e-03) (0.000000e+00 0.000000e+00 0.000000e+00)) ((-1.826900e+00 -8.181347e+00 1.263341e+02) (-3.512728e-01 6.433468e-02 3.616620e+00) (0.000000e+00 0.000000e+00 0.000000e+00))
0.000125      	((-6.825846e-01 1.196743e+01 8.453578e-01) (-2.346459e-03 3.578085e-01 -6.740563e-03) (0.000000e+00 0.000000e+00 0.000000e+00)) ((-1.459110e+00 -8.587598e+00 1.266846e+02) (-3.495685e-01 6.365994e-02 3.597197e+00) (0.000000e+00 0.000000e+00 0.000000e+00))
0.0001275     	((-6.695494e-01 1.195351e+01 8.711765e-01) (-2.352657e-03 3.564800e-01 -6.577862e-03) (0.000000e+00 0.000000e+00 0.000000e+00)) ((-1.204806e+00 -8.848931e+00 1.264037e+02) (-3.472639e-01 6.201458e-02 3.584000e+00) (0.000000e+00 0.000000e+00 0.000000e+00))
0.00013       	((-6.486662e-01 1.189726e+01 8.874384e-01) (-2.427681e-03 3.554904e-01 -6.209508e-03) (0.000000e+00 0.000000e+00 0.000000e+00)) ((-1.018188e+00 -9.014451e+00 1.256208e+02) (-3.430554e-01 5.826935e-02 3.574872e+00) (0.000000e+00 0.000000e+00 0.000000e+00))
0.0001325     	((-6.149785e-01 1.184303e+01 8.962692e-01) (-2.410892e-03 3.545111e-01 -5.847668e-03) (0.000000e+00 0.000000e+00 0.000000e+00)) ((-9.046887e-01 -9.099834e+00 1.247267e+02) (-3.389207e-01 5.464482e-02 3.564902e+00) (0.000000e+00 0.000000e+00 0.000000e+00))
0.000135      	((-5.746794e-01 1.180726e+01 8.958753e-01) (-2.409103e-03 3.537855e-01 -5.640540e-03) (0.000000e+00 0.000000e+00 0.000000e+00)) ((-8.939121e-01 -9.087901e+00 1.239486e+02) (-3.364940e-01 5.255145e-02 3.557587e+00) (0.000000e+00 0.000000e+00 0.000000e+00))
0.0001375     	((-5.408414e-01 1.177937e+01 8.914847e-01) (-2.447419e-03 3.534552e-01 -5.435373e-03) (0.000000e+00 0.000000e+00 0.000000e+00)) ((-9.276493e-01 -9.036588e+00 1.233148e+02) (-3.343339e-01 5.045250e-02 3.554607e+00) (0.000000e+00 0.000000e+00 0.000000e+00))
0.00014       	((-5.201772e-01 1.175857e+01 8.888708e-01) (-2.528963e-03 3.531307e-01 -5.345114e-03) (0.000000e+00 0.000000e+00 0.000000e+00)) ((-9.460552e-01 -9.006279e+00 1.228871e+02) (-3.333524e-01 4.946895e-02 3.552126e+00) (0.000000e+00 0.000000e+00 0.000000e+00))
0.0001425     	((-5.146823e-01 1.173248e+01 8.889582e-01) (-2.590481e-03 3.527102e-01 -5.313009e-03) (0.000000e+00 0.000000e+00 0.000000e+00)) ((-9.313031e-01 -9.006620e+00 1.225650e+02) (-3.329285e-01 4.908000e-02 3.548514e+00) (0.000000e+00 0.000000e+00 0.000000e+00))
0.000145      	((-5.236791e-01 1.170261e+01 8.946949e-01) (-2.681472e-03 3.521814e-01 -5.333496e-03) (0.000000e+00 0.000000e+00 0.000000e+00)) ((-8.535442e-01 -9.066079e+00 1.223594e+02) (-3.329760e-01 4.920161e-02 3.544155e+00) (0.000000e+00 0.000000e+00 0.000000e+00))
0.0001475     	((-5.457166e-01 1.167396e+01 9.074210e-01) (-2.830197e-03 3.516786e-01 -5.379761e-03) (0.000000e+00 0.000000e+00 0.000000e+00)) ((-7.022425e-01 -9.197137e+00 1.223077e+02) (-3.333007e-01 4.955866e-02 3.540687e+00) (0.000000e+00 0.000000e+00 0.000000e+00))
0.00015       	((-5.778179e-01 1.165083e+01 9.270399e-01) (-3.020964e-03 3.511793e-01 -5.446967e-03) (0.000000e+00 0.000000e+00 0.000000e+00)) ((-4.819916e-01 -9.397530e+00 1.224223e+02) (-3.338273e-01 5.011199e-02 3.537715e+00) (0.000000e+00 0.000000e+00 0.000000e+00))
0.0001525     	((-6.121710e-01 1.163437e+01 9.504966e-01) (-3.247043e-03 3.507059e-01 -5.523669e-03) (0.000000e+00 0.000000e+00 0.000000e+00)) ((-2.262381e-01 -9.633880e+00 1.226315e+02) (-3.344737e-01 5.075488e-02 3.535384e+00) (0.000000e+00 0.000000e+00 0.000000e+00))
0.000155      	((-6.396135e-01 1.162285e+01 9.753008e-01) (-3.411960e-03 3.502324e-01 -5.624531e-03) (0.000000e+00 0.000000e+00 0.000000e+00)) ((3.877066e-02 -9.878388e+00 1.228199e+02) (-3.353761e-01 5.167905e-02 3.532427e+00) (0.000000e+00 0.000000e+00 0.000000e+00))
0.0001575     	((-6.528867e-01 1.161449e+01 9.993794e-01) (-3.510442e-03 3.497646e-01 -5.760362e-03) (0.000000e+00 0.000000e+00 0.000000e+00)) ((2.913063e-01 -1.010922e+01 1.228909e+02) (-3.366702e-01 5.299379e-02 3.528837e+00) (0.000000e+00 0.000000e+00 0.000000e+00))
0.00016       	((-6.483277e-01 1.160744e+01 1.023099e+00) (-3.519385e-03 3.492825e-01 -5.937153e-03) (0.000000e+00 0.000000e+00 0.000000e+00)) ((5.356853e-01 -1.033025e+01 1.227859e+02) (-3.383891e-01 5.476743e-02 3.524166e+00) (0.000000e+00 0.000000e+00 0.000000e+00))
0.0001625     	((-6.261060e-01 1.160117e+01 1.048000e+00) (-3.467215e-03 3.488347e-01 -6.122388e-03) (0.000000e+00 0.000000e+00 0.000000e+00)) ((7.882750e-01 -1.055844e+01 1.225008e+02) (-3.402329e-01 5.665645e-02 3.519191e+00) (0.000000e+00 0.000000e+00 0.000000e+00))
0.000165      	((-5.880322e-01 1.159549e+01 1.075927e+00) (-3.341959e-03 3.483664e-01 -6.293704e-03) (0.000000e+00 0.000000e+00 0.000000e+00)) ((1.068458e+00 -1.081339e+01 1.220533e+02) (-3.419140e-01 5.843890e-02 3.513237e+00) (0.000000e+00 0.000000e+00 0.000000e+00))
0.0001675     	((-5.382722e-01 1.159114e+01 1.107143e+00) (-3.168267e-03 3.479530e-01 -6.411995e-03) (0.000000e+00 0.000000e+00 0.000000e+00)) ((1.379174e+00 -1.109927e+01 1.214948e+02) (-3.430729e-01 5.971196e-02 3.507314e+00) (0.000000e+00 0.000000e+00 0.000000e+00))
0.00017       	((-4.815748e-01 1.158798e+01 1.140876e+00) (-2.934235e-03 3.475328e-01 -6.457240e-03) (0.000000e+00 0.000000e+00 0.000000e+00)) ((1.712996e+00 -1.140964e+01 1.208744e+02) (-3.434446e-01 6.028140e-02 3.500687e+00) (0.000000e+00 0.000000e+00 0.000000e+00))
0.0001725     	((-4.229336e-01 1.158598e+01 1.175101e+00) (-2.689922e-03 3.471625e-01 -6.430480e-03) (0.000000e+00 0.000000e+00 0.000000e+00)) ((2.049771e+00 -1.172569e+01 1.202441e+02) (-3.430840e-01 6.013387e-02 3.494446e+00) (0.000000e+00 0.000000e+00 0.000000e+00))
0.000175      	((-3.661948e-01 1.158481e+01 1.207511e+00) (-2.440885e-03 3.467669e-01 -6.362587e-03) (0.000000e+00 0.000000e+00 0.000000e+00)) ((2.366744e+00 -1.202523e+01 1.196411e+02) (-3.422566e-01 5.957786e-02 3.487903e+00) (0.000000e+00 0.000000e+00 0.000000e+00))
0.0001775     	((-3.142941e-01 1.158433e+01 1.237038e+00) (-2.210061e-03 3.463974e-01 -6.263671e-03) (0.000000e+00 0.000000e+00 0.000000e+00)) ((2.653699e+00 -1.229831e+01 1.190949e+02) (-3.411193e-01 5.870553e-02 3.481813e+00) (0.000000e+00 0.000000e+00 0.000000e+00))
0.00018       	((-2.696046e-01 1.158421e+01 1.263674e+00) (-1.991543e-03 3.459964e-01 -6.156545e-03) (0.000000e+00 0.000000e+00 0.000000e+00)) ((2.911183e+00 -1.254559e+01 1.186272e+02) (-3.398646e-01 5.774843e-02 3.475538e+00) (0.000000e+00 0.000000e+00 0.000000e+00))
0.0001825     	((-2.342169e-01 1.158387e+01 1.287444e+00) (-1.806584e-03 3.456187e-01 -6.053255e-03) (0.000000e+00 0.000000e+00 0.000000e+00)) ((3.140485e+00 -1.276795e+01 1.182540e+02) (-3.386611e-01 5.681854e-02 3.469846e+00) (0.000000e+00 0.000000e+00 0.000000e+00))
0.000185      	((-2.109562e-01 1.158317e+01 1.308136e+00) (-1.652932e-03 3.452456e-01 -5.961163e-03) (0.000000e+00 0.000000e+00 0.000000e+00)) ((3.339924e+00 -1.296456e+01 1.180038e+02) (-3.375635e-01 5.598675e-02 3.464526e+00) (0.000000e+00 0.000000e+00 0.000000e+00))
0.0001875     	((-2.010974e-01 1.158257e+01 1.324919e+00) (-1.543121e-03 3.449074e-01 -5.837722e-03) (0.000000e+00 0.000000e+00 0.000000e+00)) ((3.500993e+00 -1.312783e+01 1.178943e+02) (-3.361598e-01 5.482521e-02 3.460011e+00) (0.000000e+00 0.000000e+00 0.000000e+00))
0.00019       	((-2.043663e-01 1.158267e+01 1.337395e+00) (-1.470685e-03 3.445993e-01 -5.735846e-03) (0.000000e+00 0.000000e+00 0.000000e+00)) ((3.619318e+00 -1.325376e+01 1.179288e+02) (-3.349804e-01 5.386045e-02 3.456186e+00) (0.000000e+00 0.000000e+00 0.000000e+00))
0.0001925     	((-2.183859e-01 1.158399e+01 1.345823e+00) (-1.432132e-03 3.443328e-01 -5.643711e-03) (0.000000e+00 0.000000e+00 0.000000e+00)) ((3.697056e+00 -1.334408e+01 1.180873e+02) (-3.339246e-01 5.297631e-02 3.453127e+00) (0.000000e+00 0.000000e+00 0.000000e+00))
0.000195      	((-2.404516e-01 1.158690e+01 1.350405e+00) (-1.427755e-03 3.440869e-01 -5.561505e-03) (0.000000e+00 0.000000e+00 0.000000e+00)) ((3.735515e+00 -1.339980e+01 1.183453e+02) (-3.329793e-01 5.217051e-02 3.450624e+00) (0.000000e+00 0.000000e+00 0.000000e+00))
0.0001975     	((-2.686737e-01 1.159067e+01 1.352135e+00) (-1.448952e-03 3.438699e-01 -5.498928e-03) (0.000000e+00 0.000000e+00 0.000000e+00)) ((3.744952e+00 -1.343015e+01 1.186760e+02) (-3.322644e-01 5.154909e-02 3.448675e+00) (0.000000e+00 0.000000e+00 0.000000e+00))
0.0002        	((-3.022582e-01 1.159483e+01 1.352103e+00) (-1.500255e-03 3.436464e-01 -5.467151e-03) (0.000000e+00 0.000000e+00 0.000000e+00)) ((3.736383e+00 -1.344609e+01 1.190664e+02) (-3.318740e-01 5.121503e-02 3.446968e+00) (0.000000e+00 0.000000e+00 0.000000e+00))
0.0002025     	((-3.398454e-01 1.159831e+01 1.352151e+00) (-1.576618e-03 3.434358e-01 -5.453194e-03) (0.000000e+00 0.000000e+00 0.000000e+00)) ((3.729246e+00 -1.346569e+01 1.194919e+02) (-3.317037e-01 5.104269e-02 3.445650e+00) (0.000000e+00 0.000000e+00 0.000000e+00))
0.000205      	((-3.794108e-01 1.160023e+01 1.353050e+00) (-1.673676e-03 3.432152e-01 -5.468161e-03) (0.000000e+00 0.000000e+00 0.000000e+00)) ((3.732179e+00 -1.349595e+01 1.199224e+02) (-3.318402e-01 5.114323e-02 3.444442e+00) (0.000000e+00 0.000000e+00 0.000000e+00))
0.0002075     	((-4.181069e-01 1.159983e+01 1.355395e+00) (-1.784505e-03 3.430095e-01 -5.496664e-03) (0.000000e+00 0.000000e+00 0.000000e+00)) ((3.751995e+00 -1.354155e+01 1.203204e+02) (-3.321506e-01 5.136591e-02 3.443523e+00) (0.000000e+00 0.000000e+00 0.000000e+00))
0.00021       	((-4.526554e-01 1.159748e+01 1.358826e+00) (-1.902973e-03 3.428081e-01 -5.530881e-03) (0.000000e+00 0.000000e+00 0.000000e+00)) ((3.784861e+00 -1.359726e+01 1.206554e+02) (-3.325328e-01 5.163290e-02 3.442719e+00) (0.000000e+00 0.000000e+00 0.000000e+00))
0.0002125     	((-4.797945e-01 1.159377e+01 1.363058e+00) (-2.014156e-03 3.426273e-01 -5.564790e-03) (0.000000e+00 0.000000e+00 0.000000e+00)) ((3.827438e+00 -1.365839e+01 1.208988e+02) (-3.329365e-01 5.189625e-02 3.442042e+00) (0.000000e+00 0.000000e+00 0.000000e+00))
0.000215      	((-4.970614e-01 1.158983e+01 1.367617e+00) (-2.112870e-03 3.424603e-01 -5.596095e-03) (0.000000e+00 0.000000e+00 0.000000e+00)) ((3.873910e+00 -1.371883e+01 1.210363e+02) (-3.333200e-01 5.213352e-02 3.441367e+00) (0.000000e+00 0.000000e+00 0.000000e+00))
0.0002175     	((-5.035220e-01 1.158584e+01 1.372624e+00) (-2.186149e-03 3.423184e-01 -5.611642e-03) (0.000000e+00 0.000000e+00 0.000000e+00)) ((3.925115e+00 -1.377900e+01 1.210600e+02) (-3.335616e-01 5.222337e-02 3.440676e+00) (0.000000e+00 0.000000e+00 0.000000e+00))
0.00022       	((-5.000883e-01 1.158245e+01 1.377552e+00) (-2.240419e-03 3.421964e-01 -5.618292e-03) (0.000000e+00 0.000000e+00 0.000000e+00)) ((3.975089e+00 -1.383382e+01 1.209861e+02) (-3.337153e-01 5.223002e-02 3.439983e+00) (0.000000e+00 0.000000e+00 0.000000e+00))
0.0002225     	((-4.888677e-01 1.157946e+01 1.382309e+00) (-2.271368e-03 3.420940e-01 -5.611966e-03) (0.000000e+00 0.000000e+00 0.000000e+00)) ((4.022893e+00 -1.388307e+01 1.208348e+02) (-3.337466e-01 5.211852e-02 3.439245e+00) (0.000000e+00 0.000000e+00 0.000000e+00))
0.000225      	((-4.726526e-01 1.157682e+01 1.386736e+00) (-2.290081e-03 3.420035e-01 -5.591400e-03) (0.000000e+00 0.000000e+00 0.000000e+00)) ((4.066932e+00 -1.392621e+01 1.206352e+02) (-3.336298e-01 5.186845e-02 3.438495e+00) (0.000000e+00 0.000000e+00 0.000000e+00))
0.0002275     	((-4.544326e-01 1.157448e+01 1.390623e+00) (-2.295551e-03 3.419367e-01 -5.571835e-03) (0.000000e+00 0.000000e+00 0.000000e+00)) ((4.105231e+00 -1.396230e+01 1.204180e+02) (-3.335348e-01 5.163854e-02 3.437849e+00) (0.000000e+00 0.000000e+00 0.000000e+00))
0.00023       	((-4.367911e-01 1.157220e+01 1.394130e+00) (-2.293591e-03 3.418691e-01 -5.551565e-03) (0.000000e+00 0.000000e+00 0.000000e+00)) ((4.139691e+00 -1.399388e+01 1.202082e+02) (-3.334207e-01 5.140758e-02 3.437121e+00) (0.000000e+00 0.000000e+00 0.000000e+00))
0.0002325     	((-4.216783e-01 1.156983e+01 1.397292e+00) (-2.288783e-03 3.418209e-01 -5.528984e-03) (0.000000e+00 0.000000e+00 0.000000e+00)) ((4.170844e+00 -1.402203e+01 1.200251e+02) (-3.332930e-01 5.115967e-02 3.436563e+00) (0.000000e+00 0.000000e+00 0.000000e+00))
0.000235      	((-4.101984e-01 1.156776e+01 1.400054e+00) (-2.293262e-03 3.417780e-01 -5.509126e-03) (0.000000e+00 0.000000e+00 0.000000e+00)) ((4.197988e+00 -1.404655e+01 1.198837e+02) (-3.331789e-01 5.093735e-02 3.436160e+00) (0.000000e+00 0.000000e+00 0.000000e+00))
0.0002375     	((-4.031454e-01 1.156639e+01 1.402376e+00) (-2.305578e-03 3.417578e-01 -5.492106e-03) (0.000000e+00 0.000000e+00 0.000000e+00)) ((4.220514e+00 -1.406751e+01 1.197965e+02) (-3.330960e-01 5.074640e-02 3.436073e+00) (0.000000e+00 0.000000e+00 0.000000e+00))
0.00024       	((-4.005826e-01 1.156608e+01 1.404462e+00) (-2.328910e-03 3.417351e-01 -5.469334e-03) (0.000000e+00 0.000000e+00 0.000000e+00)) ((4.240330e+00 -1.408700e+01 1.197677e+02) (-3.329325e-01 5.049658e-02 3.436082e+00) (0.000000e+00 0.000000e+00 0.000000e+00))
0.0002425     	((-4.014699e-01 1.156696e+01 1.406341e+00) (-2.353254e-03 3.417211e-01 -5.446045e-03) (0.000000e+00 0.000000e+00 0.000000e+00)) ((4.257723e+00 -1.410493e+01 1.197874e+02) (-3.327567e-01 5.024896e-02 3.436198e+00) (0.000000e+00 0.000000e+00 0.000000e+00))
0.000245      	((-4.045739e-01 1.156914e+01 1.408036e+00) (-2.383766e-03 3.417023e-01 -5.419032e-03) (0.000000e+00 0.000000e+00 0.000000e+00)) ((4.272816e+00 -1.412126e+01 1.198438e+02) (-3.325202e-01 4.996452e-02 3.436333e+00) (0.000000e+00 0.000000e+00 0.000000e+00))
0.0002475     	((-4.088497e-01 1.157262e+01 1.409576e+00) (-2.417391e-03 3.416952e-01 -5.386131e-03) (0.000000e+00 0.000000e+00 0.000000e+00)) ((4.285847e+00 -1.413625e+01 1.199256e+02) (-3.322241e-01 4.962271e-02 3.436620e+00) (0.000000e+00 0.000000e+00 0.000000e+00))
0.00025       	((-4.131485e-01 1.157721e+01 1.410906e+00) (-2.455419e-03 3.416763e-01 -5.354962e-03) (0.000000e+00 0.000000e+00 0.000000e+00)) ((4.296262e+00 -1.414910e+01 1.200189e+02) (-3.319241e-01 4.929495e-02 3.436832e+00) (0.000000e+00 0.000000e+00 0.000000e+00))
0.0002525     	((-4.167038e-01 1.158241e+01 1.412232e+00) (-2.480398e-03 3.416446e-01 -5.325163e-03) (0.000000e+00 0.000000e+00 0.000000e+00)) ((4.306283e+00 -1.416179e+01 1.201109e+02) (-3.316300e-01 4.899001e-02 3.436784e+00) (0.000000e+00 0.000000e+00 0.000000e+00))
0.000255      	((-4.186472e-01 1.158761e+01 1.413801e+00) (-2.487095e-03 3.415836e-01 -5.293376e-03) (0.000000e+00 0.000000e+00 0.000000e+00)) ((4.318673e+00 -1.417664e+01 1.201861e+02) (-3.312914e-01 4.867273e-02 3.436255e+00) (0.000000e+00 0.000000e+00 0.000000e+00))
0.0002575     	((-4.181869e-01 1.159247e+01 1.415592e+00) (-2.476186e-03 3.415116e-01 -5.267231e-03) (0.000000e+00 0.000000e+00 0.000000e+00)) ((4.333310e+00 -1.419338e+01 1.202329e+02) (-3.310023e-01 4.842227e-02 3.435433e+00) (0.000000e+00 0.000000e+00 0.000000e+00))
0.00026       	((-4.145657e-01 1.159679e+01 1.417583e+00) (-2.444604e-03 3.414032e-01 -5.238318e-03) (0.000000e+00 0.000000e+00 0.000000e+00)) ((4.350025e+00 -1.421174e+01 1.202412e+02) (-3.306446e-01 4.815912e-02 3.434038e+00) (0.000000e+00 0.000000e+00 0.000000e+00))
0.0002625     	((-4.071149e-01 1.160050e+01 1.419770e+00) (-2.411792e-03 3.413137e-01 -5.208731e-03) (0.000000e+00 0.000000e+00 0.000000e+00)) ((4.368768e+00 -1.423143e+01 1.202031e+02) (-3.303089e-01 4.787726e-02 3.432809e+00) (0.000000e+00 0.000000e+00 0.000000e+00))
0.000265      	((-3.955638e-01 1.160343e+01 1.422391e+00) (-2.384781e-03 3.412462e-01 -5.188555e-03) (0.000000e+00 0.000000e+00 0.000000e+00)) ((4.391698e+00 -1.425434e+01 1.201144e+02) (-3.301008e-01 4.767147e-02 3.431849e+00) (0.000000e+00 0.000000e+00 0.000000e+00))
0.0002675     	((-3.807521e-01 1.160513e+01 1.425612e+00) (-2.333961e-03 3.411628e-01 -5.161506e-03) (0.000000e+00 0.000000e+00 0.000000e+00)) ((4.420758e+00 -1.428240e+01 1.199793e+02) (-3.298031e-01 4.742010e-02 3.430493e+00) (0.000000e+00 0.000000e+00 0.000000e+00))
0.00027       	((-3.639177e-01 1.160521e+01 1.428661e+00) (-2.276471e-03 3.410715e-01 -5.130324e-03) (0.000000e+00 0.000000e+00 0.000000e+00)) ((4.448730e+00 -1.430831e+01 1.198066e+02) (-3.294484e-01 4.712843e-02 3.428989e+00) (0.000000e+00 0.000000e+00 0.000000e+00))
0.0002725     	((-3.462797e-01 1.160391e+01 1.430799e+00) (-2.219559e-03 3.410019e-01 -5.104764e-03) (0.000000e+00 0.000000e+00 0.000000e+00)) ((4.468090e+00 -1.432489e+01 1.196114e+02) (-3.291691e-01 4.688832e-02 3.427705e+00) (0.000000e+00 0.000000e+00 0.000000e+00))
0.000275      	((-3.292611e-01 1.160175e+01 1.431830e+00) (-2.160618e-03 3.409314e-01 -5.080965e-03) (0.000000e+00 0.000000e+00 0.000000e+00)) ((4.476597e+00 -1.433048e+01 1.194139e+02) (-3.288999e-01 4.666729e-02 3.426392e+00) (0.000000e+00 0.000000e+00 0.000000e+00))