# Forces      
# CofR        : (0.000000e+00 0.000000e+00 0.000000e+00)
# Time        forces(pressure viscous porous)	moments(pressure viscous porous)
2.5e-06       	((-1.421403e-01 1.127274e+01 1.755404e-01) (-6.006508e-04 3.658861e-01 -8.321364e-04) (0.000000e+00 0.000000e+00 0.000000e+00)) ((-8.396479e+00 -1.592943e+00 1.142821e+02) (-3.407327e-01 6.369312e-03 3.664054e+00) (0.000000e+00 0.000000e+00 0.000000e+00))
5e-06         	((-1.918177e+00 4.613319e+01 -2.512465e-01) (1.741777e-03 4.813455e-01 -3.787189e-03) (0.000000e+00 0.000000e+00 0.000000e+00)) ((-4.384017e+01 1.286378e+00 4.807440e+02) (-4.366801e-01 3.828372e-02 4.793926e+00) (0.000000e+00 0.000000e+00 0.000000e+00))
7.5e-06       	((-8.947247e+00 9.249409e+01 3.091249e+00) (4.536817e-03 4.593025e-01 -3.762889e-03) (0.000000e+00 0.000000e+00 0.000000e+00)) ((-5.781941e+01 -3.871402e+01 1.015983e+03) (-4.118766e-01 4.041200e-02 4.545359e+00) (0.000000e+00 0.000000e+00 0.000000e+00))
1e-05         	((-4.464058e+00 6.286335e+01 -9.205437e-01) (2.156958e-02 3.892047e-01 -1.320193e-02) (0.000000e+00 0.000000e+00 0.000000e+00)) ((-6.571523e+01 6.177157e+00 6.740164e+02) (-4.360780e-01 1.515862e-01 3.671054e+00) (0.000000e+00 0.000000e+00 0.000000e+00))
1.25e-05      	((3.977595e+00 1.620438e+01 -3.257693e+00) (2.093882e-02 3.613008e-01 -5.991200e-03) (0.000000e+00 0.000000e+00 0.000000e+00)) ((-4.154546e+01 3.801133e+01 1.217867e+02) (-3.417519e-01 7.804668e-02 3.398700e+00) (0.000000e+00 0.000000e+00 0.000000e+00))
1.5e-05       	((4.037768e+00 3.257732e+00 -1.748213e+00) (1.413900e-02 3.270947e-01 -3.177341e-03) (0.000000e+00 0.000000e+00 0.000000e+00)) ((-1.530171e+01 2.264423e+01 -8.297305e+00) (-2.873783e-01 4.294128e-02 3.126932e+00) (0.000000e+00 0.000000e+00 0.000000e+00))
1.75e-05      	((-6.242374e-02 1.011693e+01 7.022514e-01) (8.471330e-03 3.174524e-01 1.625770e-03) (0.000000e+00 0.000000e+00 0.000000e+00)) ((-2.169046e-02 -6.381722e+00 1.018631e+02) (-2.386468e-01 -1.027373e-02 3.088006e+00) (0.000000e+00 0.000000e+00 0.000000e+00))
2e-05         	((-2.410258e+00 1.670026e+01 1.826396e+00) (2.436570e-03 3.136416e-01 1.139354e-03) (0.000000e+00 0.000000e+00 0.000000e+00)) ((3.211040e+00 -2.017298e+01 1.915227e+02) (-2.453838e-01 -1.084382e-02 3.111259e+00) (0.000000e+00 0.000000e+00 0.000000e+00))
2.25e-05      	((-2.372429e+00 1.578281e+01 1.064435e+00) (-4.440428e-05 3.073003e-01 -2.515677e-03) (0.000000e+00 0.000000e+00 0.000000e+00)) ((-3.873393e+00 -1.253659e+01 1.820052e+02) (-2.768020e-01 2.377645e-02 3.073054e+00) (0.000000e+00 0.000000e+00 0.000000e+00))
2.5e-05       	((-1.271112e+00 1.008970e+01 -5.104501e-01) (-3.082670e-04 2.994202e-01 -5.435031e-03) (0.000000e+00 0.000000e+00 0.000000e+00)) ((-1.375244e+01 4.361480e+00 1.139516e+02) (-2.974677e-01 5.328449e-02 2.996696e+00) (0.000000e+00 0.000000e+00 0.000000e+00))
2.75e-05      	((-4.666655e-01 5.907248e+00 -1.359312e+00) (3.988575e-04 2.878023e-01 -6.509796e-03) (0.000000e+00 0.000000e+00 0.000000e+00)) ((-1.779658e+01 1.367679e+01 6.399537e+01) (-2.952972e-01 6.509113e-02 2.873206e+00) (0.000000e+00 0.000000e+00 0.000000e+00))
3e-05         	((-3.674224e-01 6.073775e+00 -9.263453e-01) (1.037943e-03 2.798057e-01 -4.936347e-03) (0.000000e+00 0.000000e+00 0.000000e+00)) ((-1.353264e+01 9.410587e+00 6.464953e+01) (-2.708555e-01 5.002968e-02 2.786745e+00) (0.000000e+00 0.000000e+00 0.000000e+00))
3.25e-05      	((-6.417423e-01 8.729071e+00 1.109342e-01) (9.137733e-04 2.780651e-01 -2.499239e-03) (0.000000e+00 0.000000e+00 0.000000e+00)) ((-5.882010e+00 -1.296966e+00 9.396440e+01) (-2.449042e-01 2.535296e-02 2.770518e+00) (0.000000e+00 0.000000e+00 0.000000e+00))
3.5e-05       	((-8.389795e-01 1.058900e+01 7.661281e-01) (5.531172e-04 2.792732e-01 -1.305357e-05) (0.000000e+00 0.000000e+00 0.000000e+00)) ((-1.320836e+00 -8.086027e+00 1.145508e+02) (-2.220638e-01 3.557383e-05 2.786328e+00) (0.000000e+00 0.000000e+00 0.000000e+00))
3.75e-05      	((-7.971588e-01 1.028309e+01 6.757796e-01) (-4.534929e-05 2.795275e-01 4.540887e-04) (0.000000e+00 0.000000e+00 0.000000e+00)) ((-2.019322e+00 -7.145688e+00 1.110716e+02) (-2.189826e-01 -5.404089e-03 2.794941e+00) (0.000000e+00 0.000000e+00 0.000000e+00))
4e-05         	((-6.327240e-01 8.771006e+00 1.936218e-01) (-3.934068e-04 2.761129e-01 8.395858e-05) (0.000000e+00 0.000000e+00 0.000000e+00)) ((-5.372641e+00 -2.146560e+00 9.429640e+01) (-2.206404e-01 -2.046511e-03 2.764364e+00) (0.000000e+00 0.000000e+00 0.000000e+00))
4.25e-05      	((-5.053177e-01 7.637213e+00 -1.370136e-01) (-4.515126e-04 2.706930e-01 -6.415675e-04) (0.000000e+00 0.000000e+00 0.000000e+00)) ((-7.552213e+00 1.297579e+00 8.167842e+01) (-2.236796e-01 5.218084e-03 2.710805e+00) (0.000000e+00 0.000000e+00 0.000000e+00))
4.5e-05       	((-4.735941e-01 7.581572e+00 -9.240147e-02) (-5.005324e-04 2.658932e-01 -1.001195e-03) (0.000000e+00 0.000000e+00 0.000000e+00)) ((-7.051652e+00 8.801880e-01 8.080430e+01) (-2.234721e-01 8.844828e-03 2.663402e+00) (0.000000e+00 0.000000e+00 0.000000e+00))
4.75e-05      	((-4.951126e-01 8.207791e+00 1.711668e-01) (-6.390744e-04 2.634353e-01 -7.989704e-04) (0.000000e+00 0.000000e+00 0.000000e+00)) ((-5.059449e+00 -1.792782e+00 8.728345e+01) (-2.197891e-01 6.755177e-03 2.640322e+00) (0.000000e+00 0.000000e+00 0.000000e+00))
5e-05         	((-5.039849e-01 8.756850e+00 3.840721e-01) (-8.544905e-04 2.631452e-01 -3.123218e-04) (0.000000e+00 0.000000e+00 0.000000e+00)) ((-3.513361e+00 -3.950064e+00 9.286246e+01) (-2.151026e-01 1.713391e-03 2.639690e+00) (0.000000e+00 0.000000e+00 0.000000e+00))
5.25e-05      	((-4.750506e-01 8.839653e+00 4.380274e-01) (-1.070094e-03 2.633872e-01 8.020376e-05) (0.000000e+00 0.000000e+00 0.000000e+00)) ((-3.094151e+00 -4.477474e+00 9.339881e+01) (-2.118358e-01 -2.396628e-03 2.644359e+00) (0.000000e+00 0.000000e+00 0.000000e+00))
5.5e-05       	((-4.198241e-01 8.550239e+00 3.710368e-01) (-1.171188e-03 2.631834e-01 2.479808e-04) (0.000000e+00 0.000000e+00 0.000000e+00)) ((-3.504783e+00 -3.762861e+00 8.994909e+01) (-2.102951e-01 -4.159621e-03 2.643436e+00) (0.000000e+00 0.000000e+00 0.000000e+00))
5.75e-05      	((-3.582679e-01 8.183469e+00 2.807303e-01) (-1.207284e-03 2.622022e-01 2.535826e-04) (0.000000e+00 0.000000e+00 0.000000e+00)) ((-4.059120e+00 -2.804088e+00 8.566411e+01) (-2.095943e-01 -4.217795e-03 2.634067e+00) (0.000000e+00 0.000000e+00 0.000000e+00))
6e-05         	((-3.114154e-01 7.972682e+00 2.378771e-01) (-1.141001e-03 2.609343e-01 1.340691e-04) (0.000000e+00 0.000000e+00 0.000000e+00)) ((-4.284136e+00 -2.331142e+00 8.308728e+01) (-2.098184e-01 -2.918816e-03 2.620824e+00) (0.000000e+00 0.000000e+00 0.000000e+00))
6.25e-05      	((-2.816145e-01 7.968630e+00 2.546285e-01) (-1.140308e-03 2.597404e-01 8.995522e-05) (0.000000e+00 0.000000e+00 0.000000e+00)) ((-4.115156e+00 -2.471275e+00 8.275028e+01) (-2.093672e-01 -2.416223e-03 2.608974e+00) (0.000000e+00 0.000000e+00 0.000000e+00))
6.5e-05       	((-2.668183e-01 8.083538e+00 3.014820e-01) (-1.182665e-03 2.589500e-01 1.000634e-04) (0.000000e+00 0.000000e+00 0.000000e+00)) ((-3.765269e+00 -2.927012e+00 8.375252e+01) (-2.087055e-01 -2.513736e-03 2.601597e+00) (0.000000e+00 0.000000e+00 0.000000e+00))
6.75e-05      	((-2.541342e-01 8.195788e+00 3.439202e-01) (-1.316125e-03 2.583959e-01 2.178376e-04) (0.000000e+00 0.000000e+00 0.000000e+00)) ((-3.462053e+00 -3.341237e+00 8.474927e+01) (-2.072070e-01 -3.770263e-03 2.597477e+00) (0.000000e+00 0.000000e+00 0.000000e+00))
7e-05         	((-2.406832e-01 8.237908e+00 3.656181e-01) (-1.441188e-03 2.579720e-01 3.130245e-04) (0.000000e+00 0.000000e+00 0.000000e+00)) ((-3.300185e+00 -3.545929e+00 8.503562e+01) (-2.060000e-01 -4.802073e-03 2.594584e+00) (0.000000e+00 0.000000e+00 0.000000e+00))
7.25e-05      	((-2.222748e-01 8.209938e+00 3.703186e-01) (-1.605684e-03 2.574646e-01 4.262862e-04) (0.000000e+00 0.000000e+00 0.000000e+00)) ((-3.240272e+00 -3.575131e+00 8.457111e+01) (-2.045470e-01 -6.040269e-03 2.591218e+00) (0.000000e+00 0.000000e+00 0.000000e+00))
7.5e-05       	((-2.043676e-01 8.152537e+00 3.689761e-01) (-1.686093e-03 2.569069e-01 4.644352e-04) (0.000000e+00 0.000000e+00 0.000000e+00)) ((-3.210134e+00 -3.542805e+00 8.381552e+01) (-2.037452e-01 -6.464471e-03 2.586508e+00) (0.000000e+00 0.000000e+00 0.000000e+00))
7.75e-05      	((-1.846501e-01 8.103808e+00 3.710891e-01) (-1.762836e-03 2.562056e-01 5.203763e-04) (0.000000e+00 0.000000e+00 0.000000e+00)) ((-3.152036e+00 -3.543929e+00 8.312847e+01) (-2.026762e-01 -7.052782e-03 2.580302e+00) (0.000000e+00 0.000000e+00 0.000000e+00))
8e-05         	((-1.681078e-01 8.081813e+00 3.791716e-01) (-1.761962e-03 2.555731e-01 5.097657e-04) (0.000000e+00 0.000000e+00 0.000000e+00)) ((-3.058364e+00 -3.607675e+00 8.273908e+01) (-2.023112e-01 -6.922694e-03 2.574012e+00) (0.000000e+00 0.000000e+00 0.000000e+00))
8.25e-05      	((-1.496280e-01 8.082427e+00 3.922785e-01) (-1.767658e-03 2.549229e-01 5.307334e-04) (0.000000e+00 0.000000e+00 0.000000e+00)) ((-2.935750e+00 -3.721438e+00 8.255665e+01) (-2.016716e-01 -7.106633e-03 2.567594e+00) (0.000000e+00 0.000000e+00 0.000000e+00))
8.5e-05       	((-1.324240e-01 8.094636e+00 4.067550e-01) (-1.715392e-03 2.544054e-01 4.930926e-04) (0.000000e+00 0.000000e+00 0.000000e+00)) ((-2.809835e+00 -3.850640e+00 8.250202e+01) (-2.017002e-01 -6.669904e-03 2.561929e+00) (0.000000e+00 0.000000e+00 0.000000e+00))
8.75e-05      	((-1.129014e-01 8.107340e+00 4.206032e-01) (-1.681246e-03 2.538495e-01 4.892804e-04) (0.000000e+00 0.000000e+00 0.000000e+00)) ((-2.690405e+00 -3.973210e+00 8.242974e+01) (-2.013801e-01 -6.582464e-03 2.556031e+00) (0.000000e+00 0.000000e+00 0.000000e+00))
9e-05         	((-9.444204e-02 8.117464e+00 4.331349e-01) (-1.589259e-03 2.534329e-01 4.559367e-04) (0.000000e+00 0.000000e+00 0.000000e+00)) ((-2.581085e+00 -4.083974e+00 8.234177e+01) (-2.014474e-01 -6.164830e-03 2.550957e+00) (0.000000e+00 0.000000e+00 0.000000e+00))
9.25e-05      	((-7.439097e-02 8.124459e+00 4.449418e-01) (-1.522851e-03 2.529699e-01 4.692609e-04) (0.000000e+00 0.000000e+00 0.000000e+00)) ((-2.476116e+00 -4.187418e+00 8.220745e+01) (-2.010519e-01 -6.224439e-03 2.545660e+00) (0.000000e+00 0.000000e+00 0.000000e+00))
9.5e-05       	((-5.897907e-02 8.130626e+00 4.552879e-01) (-1.412962e-03 2.525594e-01 4.073676e-04) (0.000000e+00 0.000000e+00 0.000000e+00)) ((-2.384456e+00 -4.281029e+00 8.211045e+01) (-2.013903e-01 -5.507020e-03 2.540456e+00) (0.000000e+00 0.000000e+00 0.000000e+00))
9.75e-05      	((-4.430761e-02 8.135977e+00 4.649641e-01) (-1.350154e-03 2.520507e-01 3.890172e-04) (0.000000e+00 0.000000e+00 0.000000e+00)) ((-2.298713e+00 -4.370200e+00 8.201330e+01) (-2.012285e-01 -5.257912e-03 2.534716e+00) (0.000000e+00 0.000000e+00 0.000000e+00))
0.0001        	((-3.400088e-02 8.142124e+00 4.739577e-01) (-1.254890e-03 2.516164e-01 3.303834e-04) (0.000000e+00 0.000000e+00 0.000000e+00)) ((-2.219926e+00 -4.456743e+00 8.196702e+01) (-2.014749e-01 -4.590766e-03 2.529406e+00) (0.000000e+00 0.000000e+00 0.000000e+00))
0.0001025     	((-2.361277e-02 8.148311e+00 4.832098e-01) (-1.198930e-03 2.511331e-01 3.329446e-04) (0.000000e+00 0.000000e+00 0.000000e+00)) ((-2.138467e+00 -4.546786e+00 8.192126e+01) (-2.010952e-01 -4.555802e-03 2.523987e+00) (0.000000e+00 0.000000e+00 0.000000e+00))
0.000105      	((-1.721831e-02 8.155700e+00 4.923755e-01) (-1.092132e-03 2.507981e-01 3.029657e-04) (0.000000e+00 0.000000e+00 0.000000e+00)) ((-2.058330e+00 -4.639152e+00 8.192732e+01) (-2.011333e-01 -4.155508e-03 2.519566e+00) (0.000000e+00 0.000000e+00 0.000000e+00))
0.0001075     	((-1.192716e-02 8.163248e+00 5.017208e-01) (-1.035067e-03 2.503890e-01 3.266179e-04) (0.000000e+00 0.000000e+00 0.000000e+00)) ((-1.976333e+00 -4.734689e+00 8.194755e+01) (-2.005891e-01 -4.319733e-03 2.514883e+00) (0.000000e+00 0.000000e+00 0.000000e+00))
0.00011       	((-1.219059e-02 8.172355e+00 5.106685e-01) (-9.427646e-04 2.500807e-01 3.074617e-04) (0.000000e+00 0.000000e+00 0.000000e+00)) ((-1.899190e+00 -4.829939e+00 8.203934e+01) (-2.005058e-01 -4.033047e-03 2.510869e+00) (0.000000e+00 0.000000e+00 0.000000e+00))
0.0001125     	((-1.408136e-02 8.181255e+00 5.194613e-01) (-9.099930e-04 2.496921e-01 3.336402e-04) (0.000000e+00 0.000000e+00 0.000000e+00)) ((-1.823388e+00 -4.924644e+00 8.214732e+01) (-1.999264e-01 -4.238579e-03 2.506629e+00) (0.000000e+00 0.000000e+00 0.000000e+00))
0.000115      	((-2.159723e-02 8.189994e+00 5.274953e-01) (-8.474188e-04 2.493910e-01 3.073836e-04) (0.000000e+00 0.000000e+00 0.000000e+00)) ((-1.754452e+00 -5.015126e+00 8.231033e+01) (-1.998976e-01 -3.902413e-03 2.502979e+00) (0.000000e+00 0.000000e+00 0.000000e+00))
0.0001175     	((-3.021665e-02 8.196825e+00 5.350732e-01) (-8.420074e-04 2.490054e-01 3.134122e-04) (0.000000e+00 0.000000e+00 0.000000e+00)) ((-1.688264e+00 -5.101612e+00 8.246692e+01) (-1.995051e-01 -3.924945e-03 2.499036e+00) (0.000000e+00 0.000000e+00 0.000000e+00))
0.00012       	((-4.321450e-02 8.202191e+00 5.409597e-01) (-7.911597e-04 2.487925e-01 2.955259e-04) (0.000000e+00 0.000000e+00 0.000000e+00)) ((-1.637004e+00 -5.173840e+00 8.265262e+01) (-1.995057e-01 -3.677117e-03 2.496398e+00) (0.000000e+00 0.000000e+00 0.000000e+00))
0.0001225     	((-5.677056e-02 8.204996e+00 5.447829e-01) (-8.037027e-04 2.485220e-01 3.365917e-04) (0.000000e+00 0.000000e+00 0.000000e+00)) ((-1.603861e+00 -5.226298e+00 8.281927e+01) (-1.989166e-01 -4.070859e-03 2.493804e+00) (0.000000e+00 0.000000e+00 0.000000e+00))
0.000125      	((-7.374167e-02 8.206894e+00 5.461636e-01) (-7.820149e-04 2.483306e-01 3.224814e-04) (0.000000e+00 0.000000e+00 0.000000e+00)) ((-1.593984e+00 -5.256920e+00 8.301032e+01) (-1.989064e-01 -3.896632e-03 2.491671e+00) (0.000000e+00 0.000000e+00 0.000000e+00))
0.0001275     	((-8.918933e-02 8.207300e+00 5.458468e-01) (-8.140394e-04 2.480536e-01 3.538443e-04) (0.000000e+00 0.000000e+00 0.000000e+00)) ((-1.600183e+00 -5.269900e+00 8.317184e+01) (-1.984016e-01 -4.215501e-03 2.489201e+00) (0.000000e+00 0.000000e+00 0.000000e+00))
0.00013       	((-1.067432e-01 8.207174e+00 5.433721e-01) (-8.074509e-04 2.478706e-01 3.342967e-04) (0.000000e+00 0.000000e+00 0.000000e+00)) ((-1.627538e+00 -5.262771e+00 8.334809e+01) (-1.984453e-01 -4.005832e-03 2.487301e+00) (0.000000e+00 0.000000e+00 0.000000e+00))
0.0001325     	((-1.221563e-01 8.205239e+00 5.391956e-01) (-8.545875e-04 2.476028e-01 3.571535e-04) (0.000000e+00 0.000000e+00 0.000000e+00)) ((-1.670752e+00 -5.237538e+00 8.348519e+01) (-1.980233e-01 -4.259004e-03 2.485075e+00) (0.000000e+00 0.000000e+00 0.000000e+00))
0.000135      	((-1.393055e-01 8.202736e+00 5.330104e-01) (-8.646350e-04 2.474099e-01 3.277338e-04) (0.000000e+00 0.000000e+00 0.000000e+00)) ((-1.733422e+00 -5.193474e+00 8.363285e+01) (-1.981415e-01 -3.970595e-03 2.483246e+00) (0.000000e+00 0.000000e+00 0.000000e+00))
0.0001375     	((-1.541910e-01 8.198354e+00 5.252998e-01) (-9.249591e-04 2.471257e-01 3.487031e-04) (0.000000e+00 0.000000e+00 0.000000e+00)) ((-1.809847e+00 -5.132876e+00 8.373943e+01) (-1.977012e-01 -4.219560e-03 2.480994e+00) (0.000000e+00 0.000000e+00 0.000000e+00))
0.00014       	((-1.705121e-01 8.193039e+00 5.158066e-01) (-9.500583e-04 2.469726e-01 3.377989e-04) (0.000000e+00 0.000000e+00 0.000000e+00)) ((-1.902928e+00 -5.055343e+00 8.385022e+01) (-1.976538e-01 -4.128818e-03 2.479714e+00) (0.000000e+00 0.000000e+00 0.000000e+00))
0.0001425     	((-1.837905e-01 8.185922e+00 5.048611e-01) (-1.026737e-03 2.467457e-01 3.672547e-04) (0.000000e+00 0.000000e+00 0.000000e+00)) ((-2.009100e+00 -4.961106e+00 8.391319e+01) (-1.971741e-01 -4.478050e-03 2.478195e+00) (0.000000e+00 0.000000e+00 0.000000e+00))
0.000145      	((-1.979642e-01 8.178617e+00 4.924325e-01) (-1.060723e-03 2.466062e-01 3.400291e-04) (0.000000e+00 0.000000e+00 0.000000e+00)) ((-2.129695e+00 -4.852090e+00 8.398250e+01) (-1.972971e-01 -4.235214e-03 2.477141e+00) (0.000000e+00 0.000000e+00 0.000000e+00))
0.0001475     	((-2.089706e-01 8.170678e+00 4.798375e-01) (-1.137053e-03 2.463752e-01 3.462129e-04) (0.000000e+00 0.000000e+00 0.000000e+00)) ((-2.251596e+00 -4.738924e+00 8.401459e+01) (-1.970449e-01 -4.352966e-03 2.475580e+00) (0.000000e+00 0.000000e+00 0.000000e+00))
0.00015       	((-2.210623e-01 8.163687e+00 4.675475e-01) (-1.162142e-03 2.462301e-01 2.943690e-04) (0.000000e+00 0.000000e+00 0.000000e+00)) ((-2.370965e+00 -4.628993e+00 8.406631e+01) (-1.974167e-01 -3.857533e-03 2.474383e+00) (0.000000e+00 0.000000e+00 0.000000e+00))
0.0001525     	((-2.304542e-01 8.156829e+00 4.566420e-01) (-1.220132e-03 2.460018e-01 2.727526e-04) (0.000000e+00 0.000000e+00 0.000000e+00)) ((-2.476709e+00 -4.530903e+00 8.409304e+01) (-1.974589e-01 -3.683113e-03 2.472664e+00) (0.000000e+00 0.000000e+00 0.000000e+00))
0.000155      	((-2.410870e-01 8.151196e+00 4.473774e-01) (-1.224503e-03 2.458608e-01 1.923651e-04) (0.000000e+00 0.000000e+00 0.000000e+00)) ((-2.566757e+00 -4.449780e+00 8.414373e+01) (-1.981392e-01 -2.885062e-03 2.471299e+00) (0.000000e+00 0.000000e+00 0.000000e+00))
0.0001575     	((-2.492877e-01 8.145543e+00 4.407165e-01) (-1.262359e-03 2.456375e-01 1.466180e-04) (0.000000e+00 0.000000e+00 0.000000e+00)) ((-2.630750e+00 -4.393132e+00 8.417053e+01) (-1.984533e-01 -2.453553e-03 2.469428e+00) (0.000000e+00 0.000000e+00 0.000000e+00))
0.00016       	((-2.587289e-01 8.140730e+00 4.367267e-01) (-1.249938e-03 2.455011e-01 4.665044e-05) (0.000000e+00 0.000000e+00 0.000000e+00)) ((-2.668325e+00 -4.363917e+00 8.421723e+01) (-1.993620e-01 -1.448822e-03 2.467937e+00) (0.000000e+00 0.000000e+00 0.000000e+00))
0.0001625     	((-2.651027e-01 8.135565e+00 4.359405e-01) (-1.276097e-03 2.452791e-01 -1.414581e-05) (0.000000e+00 0.000000e+00 0.000000e+00)) ((-2.673573e+00 -4.364792e+00 8.423010e+01) (-1.998538e-01 -8.620039e-04 2.465958e+00) (0.000000e+00 0.000000e+00 0.000000e+00))
0.000165      	((-2.722883e-01 8.131266e+00 4.378139e-01) (-1.253564e-03 2.451460e-01 -1.205730e-04) (0.000000e+00 0.000000e+00 0.000000e+00)) ((-2.652617e+00 -4.392626e+00 8.425848e+01) (-2.008502e-01 2.093486e-04 2.464396e+00) (0.000000e+00 0.000000e+00 0.000000e+00))
0.0001675     	((-2.763209e-01 8.127081e+00 4.424429e-01) (-1.275737e-03 2.449299e-01 -1.795262e-04) (0.000000e+00 0.000000e+00 0.000000e+00)) ((-2.604393e+00 -4.445948e+00 8.425665e+01) (-2.013401e-01 7.754658e-04 2.462433e+00) (0.000000e+00 0.000000e+00 0.000000e+00))
0.00017       	((-2.812896e-01 8.124404e+00 4.488801e-01) (-1.250277e-03 2.448025e-01 -2.780199e-04) (0.000000e+00 0.000000e+00 0.000000e+00)) ((-2.539278e+00 -4.517821e+00 8.427811e+01) (-2.022669e-01 1.764377e-03 2.460895e+00) (0.000000e+00 0.000000e+00 0.000000e+00))
0.0001725     	((-2.836722e-01 8.122370e+00 4.569271e-01) (-1.263590e-03 2.446019e-01 -3.221761e-04) (0.000000e+00 0.000000e+00 0.000000e+00)) ((-2.458960e+00 -4.604168e+00 8.428051e+01) (-2.026218e-01 2.182805e-03 2.458998e+00) (0.000000e+00 0.000000e+00 0.000000e+00))
0.000175      	((-2.875026e-01 8.121885e+00 4.656585e-01) (-1.234419e-03 2.444937e-01 -3.977653e-04) (0.000000e+00 0.000000e+00 0.000000e+00)) ((-2.373062e+00 -4.698248e+00 8.431205e+01) (-2.033308e-01 2.940581e-03 2.457615e+00) (0.000000e+00 0.000000e+00 0.000000e+00))
0.0001775     	((-2.892714e-01 8.121657e+00 4.751148e-01) (-1.250490e-03 2.443079e-01 -4.114598e-04) (0.000000e+00 0.000000e+00 0.000000e+00)) ((-2.280430e+00 -4.798323e+00 8.432624e+01) (-2.033872e-01 3.049921e-03 2.455893e+00) (0.000000e+00 0.000000e+00 0.000000e+00))
0.00018       	((-2.933355e-01 8.122581e+00 4.845724e-01) (-1.225431e-03 2.442191e-01 -4.551541e-04) (0.000000e+00 0.000000e+00 0.000000e+00)) ((-2.188599e+00 -4.899779e+00 8.437421e+01) (-2.037861e-01 3.484997e-03 2.454747e+00) (0.000000e+00 0.000000e+00 0.000000e+00))
0.0001825     	((-2.958547e-01 8.123448e+00 4.942441e-01) (-1.248919e-03 2.440495e-01 -4.404711e-04) (0.000000e+00 0.000000e+00 0.000000e+00)) ((-2.094804e+00 -5.002351e+00 8.440707e+01) (-2.035637e-01 3.306760e-03 2.453263e+00) (0.000000e+00 0.000000e+00 0.000000e+00))
0.000185      	((-3.010701e-01 8.125259e+00 5.033698e-01) (-1.231482e-03 2.439758e-01 -4.558060e-04) (0.000000e+00 0.000000e+00 0.000000e+00)) ((-2.007018e+00 -5.100985e+00 8.447585e+01) (-2.036823e-01 3.455425e-03 2.452347e+00) (0.000000e+00 0.000000e+00 0.000000e+00))
0.0001875     	((-3.051767e-01 8.126822e+00 5.120957e-01) (-1.262526e-03 2.438258e-01 -4.167539e-04) (0.000000e+00 0.000000e+00 0.000000e+00)) ((-1.923130e+00 -5.194814e+00 8.453205e+01) (-2.032208e-01 3.029906e-03 2.451138e+00) (0.000000e+00 0.000000e+00 0.000000e+00))
0.00019       	((-3.119247e-01 8.128973e+00 5.200186e-01) (-1.254863e-03 2.437819e-01 -4.121842e-04) (0.000000e+00 0.000000e+00 0.000000e+00)) ((-1.847448e+00 -5.282130e+00 8.462022e+01) (-2.031594e-01 2.974262e-03 2.450622e+00) (0.000000e+00 0.000000e+00 0.000000e+00))
0.0001925     	((-3.174735e-01 8.130540e+00 5.272882e-01) (-1.298259e-03 2.436724e-01 -3.526173e-04) (0.000000e+00 0.000000e+00 0.000000e+00)) ((-1.777820e+00 -5.362105e+00 8.469164e+01) (-2.025305e-01 2.334408e-03 2.449947e+00) (0.000000e+00 0.000000e+00 0.000000e+00))
0.000195      	((-3.256986e-01 8.132537e+00 5.333292e-01) (-1.303375e-03 2.436638e-01 -3.353541e-04) (0.000000e+00 0.000000e+00 0.000000e+00)) ((-1.720460e+00 -5.431355e+00 8.479381e+01) (-2.023733e-01 2.140992e-03 2.449917e+00) (0.000000e+00 0.000000e+00 0.000000e+00))
0.0001975     	((-3.325070e-01 8.133884e+00 5.385319e-01) (-1.358563e-03 2.435731e-01 -2.718321e-04) (0.000000e+00 0.000000e+00 0.000000e+00)) ((-1.670997e+00 -5.491294e+00 8.487644e+01) (-2.017201e-01 1.453725e-03 2.449551e+00) (0.000000e+00 0.000000e+00 0.000000e+00))
0.0002        	((-3.421150e-01 8.135666e+00 5.424557e-01) (-1.371519e-03 2.435795e-01 -2.535379e-04) (0.000000e+00 0.000000e+00 0.000000e+00)) ((-1.634345e+00 -5.540092e+00 8.499100e+01) (-2.015650e-01 1.245849e-03 2.449752e+00) (0.000000e+00 0.000000e+00 0.000000e+00))
0.0002025     	((-3.503838e-01 8.136720e+00 5.456310e-01) (-1.433418e-03 2.435047e-01 -1.931361e-04) (0.000000e+00 0.000000e+00 0.000000e+00)) ((-1.604636e+00 -5.580530e+00 8.508590e+01) (-2.009541e-01 5.859914e-04 2.449614e+00) (0.000000e+00 0.000000e+00 0.000000e+00))
0.000205      	((-3.610971e-01 8.138101e+00 5.477384e-01) (-1.455766e-03 2.435219e-01 -1.795511e-04) (0.000000e+00 0.000000e+00 0.000000e+00)) ((-1.585545e+00 -5.611715e+00 8.520809e+01) (-2.008518e-01 4.186639e-04 2.450020e+00) (0.000000e+00 0.000000e+00 0.000000e+00))
0.0002075     	((-3.702310e-01 8.138758e+00 5.492525e-01) (-1.525474e-03 2.434603e-01 -1.214331e-04) (0.000000e+00 0.000000e+00 0.000000e+00)) ((-1.571821e+00 -5.635902e+00 8.530814e+01) (-2.002692e-01 -2.246732e-04 2.450096e+00) (0.000000e+00 0.000000e+00 0.000000e+00))
0.00021       	((-3.812788e-01 8.139756e+00 5.498227e-01) (-1.556164e-03 2.434876e-01 -1.109492e-04) (0.000000e+00 0.000000e+00 0.000000e+00)) ((-1.567503e+00 -5.651666e+00 8.543025e+01) (-2.001970e-01 -3.678999e-04 2.450690e+00) (0.000000e+00 0.000000e+00 0.000000e+00))
0.0002125     	((-3.900524e-01 8.140025e+00 5.498807e-01) (-1.635160e-03 2.434259e-01 -5.412537e-05) (0.000000e+00 0.000000e+00 0.000000e+00)) ((-1.567785e+00 -5.660717e+00 8.552321e+01) (-1.996174e-01 -1.005355e-03 2.450859e+00) (0.000000e+00 0.000000e+00 0.000000e+00))
0.000215      	((-4.005802e-01 8.140601e+00 5.489561e-01) (-1.670039e-03 2.434543e-01 -4.164326e-05) (0.000000e+00 0.000000e+00 0.000000e+00)) ((-1.577834e+00 -5.660757e+00 8.563609e+01) (-1.995155e-01 -1.171227e-03 2.451508e+00) (0.000000e+00 0.000000e+00 0.000000e+00))
0.0002175     	((-4.084805e-01 8.140296e+00 5.475362e-01) (-1.750942e-03 2.433901e-01 1.577211e-05) (0.000000e+00 0.000000e+00 0.000000e+00)) ((-1.592214e+00 -5.653942e+00 8.571460e+01) (-1.989165e-01 -1.814497e-03 2.451673e+00) (0.000000e+00 0.000000e+00 0.000000e+00))
0.00022       	((-4.176734e-01 8.140175e+00 5.452207e-01) (-1.784899e-03 2.434121e-01 3.240271e-05) (0.000000e+00 0.000000e+00 0.000000e+00)) ((-1.615415e+00 -5.638613e+00 8.580702e+01) (-1.987593e-01 -2.018598e-03 2.452249e+00) (0.000000e+00 0.000000e+00 0.000000e+00))
0.0002225     	((-4.240342e-01 8.139125e+00 5.424630e-01) (-1.857920e-03 2.433512e-01 9.509446e-05) (0.000000e+00 0.000000e+00 0.000000e+00)) ((-1.642368e+00 -5.616743e+00 8.586232e+01) (-1.981016e-01 -2.705646e-03 2.452369e+00) (0.000000e+00 0.000000e+00 0.000000e+00))
0.000225      	((-4.310188e-01 8.138182e+00 5.389313e-01) (-1.882670e-03 2.433758e-01 1.119615e-04) (0.000000e+00 0.000000e+00 0.000000e+00)) ((-1.676895e+00 -5.587105e+00 8.592402e+01) (-1.979354e-01 -2.901651e-03 2.452878e+00) (0.000000e+00 0.000000e+00 0.000000e+00))
0.0002275     	((-4.346415e-01 8.136316e+00 5.350845e-01) (-1.944055e-03 2.433149e-01 1.746957e-04) (0.000000e+00 0.000000e+00 0.000000e+00)) ((-1.713931e+00 -5.551847e+00 8.594332e+01) (-1.972717e-01 -3.576803e-03 2.452880e+00) (0.000000e+00 0.000000e+00 0.000000e+00))
0.00023       	((-4.388516e-01 8.134578e+00 5.305571e-01) (-1.953361e-03 2.433432e-01 1.895280e-04) (0.000000e+00 0.000000e+00 0.000000e+00)) ((-1.757616e+00 -5.509737e+00 8.596874e+01) (-1.971243e-01 -3.737595e-03 2.453269e+00) (0.000000e+00 0.000000e+00 0.000000e+00))
0.0002325     	((-4.395240e-01 8.131873e+00 5.258953e-01) (-2.001145e-03 2.432798e-01 2.463183e-04) (0.000000e+00 0.000000e+00 0.000000e+00)) ((-1.801992e+00 -5.463754e+00 8.594955e+01) (-1.965158e-01 -4.339948e-03 2.453106e+00) (0.000000e+00 0.000000e+00 0.000000e+00))
0.000235      	((-4.410368e-01 8.129343e+00 5.207226e-01) (-1.995011e-03 2.433062e-01 2.585015e-04) (0.000000e+00 0.000000e+00 0.000000e+00)) ((-1.851359e+00 -5.412848e+00 8.593939e+01) (-1.963951e-01 -4.459982e-03 2.453319e+00) (0.000000e+00 0.000000e+00 0.000000e+00))
0.0002375     	((-4.394550e-01 8.125909e+00 5.156071e-01) (-2.025590e-03 2.432486e-01 3.103391e-04) (0.000000e+00 0.000000e+00 0.000000e+00)) ((-1.899541e+00 -5.360357e+00 8.588952e+01) (-1.958422e-01 -4.997835e-03 2.453040e+00) (0.000000e+00 0.000000e+00 0.000000e+00))
0.00024       	((-4.386994e-01 8.122697e+00 5.103069e-01) (-2.006134e-03 2.432786e-01 3.133573e-04) (0.000000e+00 0.000000e+00 0.000000e+00)) ((-1.949516e+00 -5.306329e+00 8.584911e+01) (-1.958176e-01 -5.014657e-03 2.453152e+00) (0.000000e+00 0.000000e+00 0.000000e+00))
0.0002425     	((-4.351695e-01 8.118765e+00 5.053586e-01) (-2.022764e-03 2.432292e-01 3.573560e-04) (0.000000e+00 0.000000e+00 0.000000e+00)) ((-1.995511e+00 -5.254010e+00 8.577412e+01) (-1.953519e-01 -5.463001e-03 2.452814e+00) (0.000000e+00 0.000000e+00 0.000000e+00))
0.000245      	((-4.328001e-01 8.115254e+00 5.005209e-01) (-1.991115e-03 2.432677e-01 3.496320e-04) (0.000000e+00 0.000000e+00 0.000000e+00)) ((-2.040545e+00 -5.203478e+00 8.571402e+01) (-1.954423e-01 -5.362745e-03 2.452887e+00) (0.000000e+00 0.000000e+00 0.000000e+00))
0.0002475     	((-4.278343e-01 8.111218e+00 4.963379e-01) (-1.999526e-03 2.432172e-01 3.825843e-04) (0.000000e+00 0.000000e+00 0.000000e+00)) ((-2.078808e+00 -5.157960e+00 8.562325e+01) (-1.950882e-01 -5.693548e-03 2.452451e+00) (0.000000e+00 0.000000e+00 0.000000e+00))
0.00025       	((-4.248533e-01 8.107860e+00 4.923848e-01) (-1.956912e-03 2.432588e-01 3.673130e-04) (0.000000e+00 0.000000e+00 0.000000e+00)) ((-2.115162e+00 -5.116073e+00 8.555817e+01) (-1.952590e-01 -5.508992e-03 2.452444e+00) (0.000000e+00 0.000000e+00 0.000000e+00))
0.0002525     	((-4.199096e-01 8.104154e+00 4.891567e-01) (-1.957100e-03 2.432101e-01 3.916561e-04) (0.000000e+00 0.000000e+00 0.000000e+00)) ((-2.144246e+00 -5.080426e+00 8.547060e+01) (-1.949934e-01 -5.747031e-03 2.451944e+00) (0.000000e+00 0.000000e+00 0.000000e+00))
0.000255      	((-4.173521e-01 8.101335e+00 4.861954e-01) (-1.910703e-03 2.432480e-01 3.718624e-04) (0.000000e+00 0.000000e+00 0.000000e+00)) ((-2.171283e+00 -5.049148e+00 8.541496e+01) (-1.952087e-01 -5.513773e-03 2.451860e+00) (0.000000e+00 0.000000e+00 0.000000e+00))
0.0002575     	((-4.136223e-01 8.098439e+00 4.838574e-01) (-1.905487e-03 2.432066e-01 3.941322e-04) (0.000000e+00 0.000000e+00 0.000000e+00)) ((-2.192299e+00 -5.023692e+00 8.534749e+01) (-1.949700e-01 -5.727053e-03 2.451377e+00) (0.000000e+00 0.000000e+00 0.000000e+00))
0.00026       	((-4.124655e-01 8.096579e+00 4.817742e-01) (-1.858892e-03 2.432495e-01 3.673210e-04) (0.000000e+00 0.000000e+00 0.000000e+00)) ((-2.211570e+00 -5.002710e+00 8.531558e+01) (-1.952567e-01 -5.424104e-03 2.451342e+00) (0.000000e+00 0.000000e+00 0.000000e+00))
0.0002625     	((-4.101923e-01 8.094785e+00 4.802924e-01) (-1.859012e-03 2.432027e-01 3.862191e-04) (0.000000e+00 0.000000e+00 0.000000e+00)) ((-2.225206e+00 -4.987436e+00 8.527409e+01) (-1.950456e-01 -5.609112e-03 2.450859e+00) (0.000000e+00 0.000000e+00 0.000000e+00))
0.000265      	((-4.110509e-01 8.094123e+00 4.788770e-01) (-1.817440e-03 2.432422e-01 3.582422e-04) (0.000000e+00 0.000000e+00 0.000000e+00)) ((-2.239042e+00 -4.975099e+00 8.527474e+01) (-1.953370e-01 -5.301123e-03 2.450840e+00) (0.000000e+00 0.000000e+00 0.000000e+00))
0.0002675     	((-4.108327e-01 8.093441e+00 4.779195e-01) (-1.828925e-03 2.431803e-01 3.755360e-04) (0.000000e+00 0.000000e+00 0.000000e+00)) ((-2.248617e+00 -4.967005e+00 8.526547e+01) (-1.951238e-01 -5.482208e-03 2.450320e+00) (0.000000e+00 0.000000e+00 0.000000e+00))
0.00027       	((-4.139094e-01 8.093827e+00 4.768275e-01) (-1.801418e-03 2.431980e-01 3.561005e-04) (0.000000e+00 0.000000e+00 0.000000e+00)) ((-2.260300e+00 -4.959830e+00 8.529933e+01) (-1.953077e-01 -5.274617e-03 2.450225e+00) (0.000000e+00 0.000000e+00 0.000000e+00))
0.0002725     	((-4.161990e-01 8.094097e+00 4.759319e-01) (-1.825830e-03 2.431206e-01 3.842435e-04) (0.000000e+00 0.000000e+00 0.000000e+00)) ((-2.270157e+00 -4.954330e+00 8.532509e+01) (-1.949646e-01 -5.579122e-03 2.449682e+00) (0.000000e+00 0.000000e+00 0.000000e+00))
0.000275      	((-4.211440e-01 8.095255e+00 4.747968e-01) (-1.814472e-03 2.431179e-01 3.698690e-04) (0.000000e+00 0.000000e+00 0.000000e+00)) ((-2.282985e+00 -4.948160e+00 8.538590e+01) (-1.950685e-01 -5.438983e-03 2.449544e+00) (0.000000e+00 0.000000e+00 0.000000e+00))