# Forces      
# CofR        : (0.000000e+00 0.000000e+00 0.000000e+00)
# Time        forces(pressure viscous porous)	moments(pressure viscous porous)
2.5e-06       	((5.467995e-01 2.284270e+01 7.296802e-02) (8.305588e-04 5.992247e-01 -5.914073e-03) (0.000000e+00 0.000000e+00 0.000000e+00)) ((-1.898370e+01 2.322420e-01 2.230163e+02) (-6.213251e-01 5.728513e-02 5.971791e+00) (0.000000e+00 0.000000e+00 0.000000e+00))
5e-06         	((-1.207691e+00 1.033810e+02 -4.134332e+00) (4.746264e-03 8.134014e-01 -1.142332e-02) (0.000000e+00 0.000000e+00 0.000000e+00)) ((-1.303343e+02 4.170655e+01 1.045859e+03) (-8.082323e-01 1.166218e-01 8.071184e+00) (0.000000e+00 0.000000e+00 0.000000e+00))
7.5e-06       	((-1.117875e+01 1.850804e+02 -1.310792e+01) (2.078531e-02 8.038361e-01 -1.070227e-02) (0.000000e+00 0.000000e+00 0.000000e+00)) ((-2.954092e+02 1.221505e+02 1.963269e+03) (-7.473289e-01 1.225036e-01 7.817409e+00) (0.000000e+00 0.000000e+00 0.000000e+00))
1e-05         	((-3.277356e+00 8.298003e+01 -2.234145e+01) (3.091850e-02 7.017496e-01 -8.271753e-03) (0.000000e+00 0.000000e+00 0.000000e+00)) ((-3.059105e+02 2.223989e+02 8.652710e+02) (-6.292625e-01 1.062881e-01 6.692179e+00) (0.000000e+00 0.000000e+00 0.000000e+00))
1.25e-05      	((1.202394e+01 3.247329e+01 -3.713952e+00) (3.523626e-02 1.173718e+00 2.123234e-01) (0.000000e+00 0.000000e+00 0.000000e+00)) ((-6.188580e+01 4.949527e+01 2.044097e+02) (1.342844e+00 -2.094339e+00 1.134323e+01) (0.000000e+00 0.000000e+00 0.000000e+00))
1.5e-05       	((2.313639e+01 2.288380e+02 6.791300e+01) (2.698837e-02 1.431551e+00 3.192025e-01) (0.000000e+00 0.000000e+00 0.000000e+00)) ((5.637326e+02 -6.598627e+02 2.045072e+03) (2.291633e+00 -3.164770e+00 1.399563e+01) (0.000000e+00 0.000000e+00 0.000000e+00))
1.75e-05      	((2.329550e-01 1.840271e+02 4.678467e+01) (-1.540627e-02 -1.660985e+00 -1.198622e+00) (0.000000e+00 0.000000e+00 0.000000e+00)) ((3.660225e+02 -4.656893e+02 1.830944e+03) (-1.145405e+01 1.193520e+01 -1.638270e+01) (0.000000e+00 0.000000e+00 0.000000e+00))
2e-05         	((-7.687841e+00 5.204761e+01 1.868188e+00) (-6.178106e-02 -2.131186e+00 -1.088127e+00) (0.000000e+00 0.000000e+00 0.000000e+00)) ((-2.281592e+01 -2.411468e+01 5.969664e+02) (-1.006550e+01 1.080934e+01 -2.059284e+01) (0.000000e+00 0.000000e+00 0.000000e+00))
2.25e-05      	((-6.268212e+00 -1.133012e+02 -4.156930e+01) (-9.070489e-02 -1.321720e+00 -6.457785e-01) (0.000000e+00 0.000000e+00 0.000000e+00)) ((-3.729776e+02 4.096753e+02 -1.063716e+03) (-5.997473e+00 6.384660e+00 -1.223213e+01) (0.000000e+00 0.000000e+00 0.000000e+00))
2.5e-05       	((2.651289e+00 -9.289977e+01 -3.252212e+01) (-2.375247e-02 6.499202e-01 -9.008218e-03) (0.000000e+00 0.000000e+00 0.000000e+00)) ((-2.862783e+02 3.256744e+02 -9.512475e+02) (-5.840889e-01 7.859331e-02 6.727829e+00) (0.000000e+00 0.000000e+00 0.000000e+00))
2.75e-05      	((1.259890e+01 -3.158431e+01 -7.768891e+00) (-6.298777e-02 1.808972e+00 3.444126e-01) (0.000000e+00 0.000000e+00 0.000000e+00)) ((-6.372205e+01 8.511869e+01 -4.415131e+02) (2.383464e+00 -3.461616e+00 1.866779e+01) (0.000000e+00 0.000000e+00 0.000000e+00))
3e-05         	((1.710081e+01 2.990748e+02 7.943039e+01) (-2.769607e-02 1.258574e+00 1.933246e-01) (0.000000e+00 0.000000e+00 0.000000e+00)) ((6.446185e+02 -7.808314e+02 2.803143e+03) (1.146307e+00 -1.940668e+00 1.283478e+01) (0.000000e+00 0.000000e+00 0.000000e+00))
3.25e-05      	((-7.126404e+00 3.335746e+02 7.854663e+01) (8.679111e-03 7.089161e-01 3.004076e-02) (0.000000e+00 0.000000e+00 0.000000e+00)) ((6.145308e+02 -7.853821e+02 3.392962e+03) (-2.069987e-01 -2.956125e-01 6.987602e+00) (0.000000e+00 0.000000e+00 0.000000e+00))
3.5e-05       	((-2.158749e+01 1.591456e+02 2.624616e+01) (1.755983e-02 5.782541e-01 1.748002e-02) (0.000000e+00 0.000000e+00 0.000000e+00)) ((1.754188e+02 -2.734775e+02 1.804756e+03) (-2.645315e-01 -1.667591e-01 5.593801e+00) (0.000000e+00 0.000000e+00 0.000000e+00))
3.75e-05      	((-2.845584e+01 2.950053e+01 -8.585177e+00) (-3.914283e-02 1.772818e-01 -5.796172e-02) (0.000000e+00 0.000000e+00 0.000000e+00)) ((-1.094670e+02 6.949349e+01 5.838495e+02) (-8.148188e-01 5.528666e-01 2.176105e+00) (0.000000e+00 0.000000e+00 0.000000e+00))
4e-05         	((-1.004078e+01 -1.455408e+02 -4.869312e+01) (3.181855e-02 1.715512e-02 -7.163841e-02) (0.000000e+00 0.000000e+00 0.000000e+00)) ((-4.240761e+02 4.785413e+02 -1.346688e+03) (-8.659150e-01 7.265311e-01 -1.424570e-01) (0.000000e+00 0.000000e+00 0.000000e+00))
4.25e-05      	((1.232047e+01 -1.146292e+02 -3.280209e+01) (3.978197e-02 4.759818e-01 -6.149801e-02) (0.000000e+00 0.000000e+00 0.000000e+00)) ((-2.774644e+02 3.324950e+02 -1.266714e+03) (-9.889790e-01 6.303786e-01 4.341719e+00) (0.000000e+00 0.000000e+00 0.000000e+00))
4.5e-05       	((2.082473e+01 -1.849058e+01 -1.269518e+00) (8.105766e-02 1.216631e+00 -1.430277e-01) (0.000000e+00 0.000000e+00 0.000000e+00)) ((-7.871593e+00 2.348210e+01 -3.956171e+02) (-2.209328e+00 1.465507e+00 1.129690e+01) (0.000000e+00 0.000000e+00 0.000000e+00))
4.75e-05      	((9.943296e+00 6.922785e+01 2.295213e+01) (3.030866e-02 1.461869e+00 1.450642e-02) (0.000000e+00 0.000000e+00 0.000000e+00)) ((1.926110e+02 -2.223602e+02 5.879162e+02) (-7.365163e-01 -1.290025e-01 1.425935e+01) (0.000000e+00 0.000000e+00 0.000000e+00))
5e-05         	((-6.572943e+00 9.225515e+01 2.451546e+01) (-2.444584e-02 9.166229e-01 9.870740e-02) (0.000000e+00 0.000000e+00 0.000000e+00)) ((1.966625e+02 -2.467603e+02 9.845994e+02) (3.997515e-01 -9.990287e-01 9.386646e+00) (0.000000e+00 0.000000e+00 0.000000e+00))
5.25e-05      	((-1.485821e+01 6.433462e+01 1.154788e+01) (-6.353980e-02 7.171858e-01 8.954097e-02) (0.000000e+00 0.000000e+00 0.000000e+00)) ((7.963318e+01 -1.229437e+02 7.914803e+02) (4.077863e-01 -9.297264e-01 7.795902e+00) (0.000000e+00 0.000000e+00 0.000000e+00))
5.5e-05       	((-1.789062e+01 3.299513e+01 3.812676e-01) (-4.802395e-02 5.307011e-01 5.891599e-02) (0.000000e+00 0.000000e+00 0.000000e+00)) ((-1.758796e+01 -1.406614e+01 5.110535e+02) (1.931036e-01 -6.177925e-01 5.782940e+00) (0.000000e+00 0.000000e+00 0.000000e+00))
5.75e-05      	((-1.053852e+01 1.441308e+01 -3.398485e+00) (-4.979056e-02 3.573990e-01 2.516359e-02) (0.000000e+00 0.000000e+00 0.000000e+00)) ((-4.649457e+01 2.749754e+01 2.510915e+02) (-6.105911e-02 -2.840430e-01 4.077329e+00) (0.000000e+00 0.000000e+00 0.000000e+00))
6e-05         	((-2.266630e+00 1.171079e+01 -1.367960e+00) (-4.103346e-02 3.795117e-01 -1.186444e-02) (0.000000e+00 0.000000e+00 0.000000e+00)) ((-2.454537e+01 1.195103e+01 1.395608e+02) (-4.461197e-01 8.925922e-02 4.208314e+00) (0.000000e+00 0.000000e+00 0.000000e+00))
6.25e-05      	((4.860982e-01 1.343138e+01 5.865859e-01) (-2.123765e-02 4.977144e-01 -4.249182e-03) (0.000000e+00 0.000000e+00 0.000000e+00)) ((-5.505431e+00 -5.967397e+00 1.285748e+02) (-4.302747e-01 2.606184e-02 5.182219e+00) (0.000000e+00 0.000000e+00 0.000000e+00))
6.5e-05       	((-1.413284e+00 1.719353e+01 1.628813e+00) (-7.407219e-03 5.674946e-01 6.870067e-03) (0.000000e+00 0.000000e+00 0.000000e+00)) ((3.052139e+00 -1.744098e+01 1.857185e+02) (-3.545841e-01 -7.641037e-02 5.735900e+00) (0.000000e+00 0.000000e+00 0.000000e+00))
6.75e-05      	((-4.393707e+00 1.803618e+01 1.429561e+00) (-4.914951e-03 5.841676e-01 1.215180e-02) (0.000000e+00 0.000000e+00 0.000000e+00)) ((4.837220e-01 -1.709164e+01 2.248418e+02) (-3.095771e-01 -1.275642e-01 5.877090e+00) (0.000000e+00 0.000000e+00 0.000000e+00))
7e-05         	((-5.692572e+00 1.882579e+01 1.320662e+00) (-8.478586e-03 5.690823e-01 5.043136e-03) (0.000000e+00 0.000000e+00 0.000000e+00)) ((-1.141894e+00 -1.661003e+01 2.460388e+02) (-3.746903e-01 -5.902456e-02 5.764370e+00) (0.000000e+00 0.000000e+00 0.000000e+00))
7.25e-05      	((-5.139413e+00 1.880107e+01 1.354897e+00) (-1.205123e-02 5.334147e-01 -7.573040e-03) (0.000000e+00 0.000000e+00 0.000000e+00)) ((-8.480006e-01 -1.651479e+01 2.400833e+02) (-4.846406e-01 6.445209e-02 5.447004e+00) (0.000000e+00 0.000000e+00 0.000000e+00))
7.5e-05       	((-3.919996e+00 1.834867e+01 1.471993e+00) (-1.614534e-02 5.126377e-01 -1.389690e-02) (0.000000e+00 0.000000e+00 0.000000e+00)) ((4.974401e-01 -1.692910e+01 2.231573e+02) (-5.381716e-01 1.252173e-01 5.282351e+00) (0.000000e+00 0.000000e+00 0.000000e+00))
7.75e-05      	((-3.192636e+00 1.811609e+01 1.592095e+00) (-1.651834e-02 4.634601e-01 -2.300813e-02) (0.000000e+00 0.000000e+00 0.000000e+00)) ((1.710148e+00 -1.769515e+01 2.135633e+02) (-6.042791e-01 2.157978e-01 4.796344e+00) (0.000000e+00 0.000000e+00 0.000000e+00))
8e-05         	((-2.854573e+00 1.725640e+01 1.401641e+00) (-1.017362e-02 4.731759e-01 -1.607217e-02) (0.000000e+00 0.000000e+00 0.000000e+00)) ((7.213101e-02 -1.558372e+01 2.016970e+02) (-5.392919e-01 1.500818e-01 4.828183e+00) (0.000000e+00 0.000000e+00 0.000000e+00))
8.25e-05      	((-2.542396e+00 1.637916e+01 1.183088e+00) (-8.307037e-03 4.850603e-01 -1.270715e-02) (0.000000e+00 0.000000e+00 0.000000e+00)) ((-1.838421e+00 -1.318788e+01 1.898312e+02) (-5.115358e-01 1.175856e-01 4.927257e+00) (0.000000e+00 0.000000e+00 0.000000e+00))
8.5e-05       	((-2.278807e+00 1.615893e+01 1.125345e+00) (-8.200092e-03 4.875072e-01 -1.158296e-02) (0.000000e+00 0.000000e+00 0.000000e+00)) ((-2.412788e+00 -1.240952e+01 1.849097e+02) (-5.017219e-01 1.065315e-01 4.950436e+00) (0.000000e+00 0.000000e+00 0.000000e+00))
8.75e-05      	((-2.008404e+00 1.613708e+01 1.239697e+00) (-8.130915e-03 4.876058e-01 -1.067177e-02) (0.000000e+00 0.000000e+00 0.000000e+00)) ((-1.269633e+00 -1.335495e+01 1.818641e+02) (-4.928394e-01 9.759465e-02 4.950851e+00) (0.000000e+00 0.000000e+00 0.000000e+00))
9e-05         	((-1.796102e+00 1.696623e+01 1.631053e+00) (-8.063762e-03 4.860045e-01 -1.134638e-02) (0.000000e+00 0.000000e+00 0.000000e+00)) ((2.267829e+00 -1.711115e+01 1.878958e+02) (-4.989119e-01 1.044328e-01 4.934374e+00) (0.000000e+00 0.000000e+00 0.000000e+00))
9.25e-05      	((-1.705526e+00 1.744389e+01 1.915118e+00) (-7.910599e-03 4.799227e-01 -1.259758e-02) (0.000000e+00 0.000000e+00 0.000000e+00)) ((4.920573e+00 -1.988361e+01 1.916979e+02) (-5.083007e-01 1.170190e-01 4.872331e+00) (0.000000e+00 0.000000e+00 0.000000e+00))
9.5e-05       	((-1.707191e+00 1.718713e+01 2.025554e+00) (-7.645707e-03 4.770260e-01 -1.238643e-02) (0.000000e+00 0.000000e+00 0.000000e+00)) ((6.193611e+00 -2.099068e+01 1.891717e+02) (-5.044643e-01 1.150462e-01 4.840808e+00) (0.000000e+00 0.000000e+00 0.000000e+00))
9.75e-05      	((-1.716897e+00 1.685860e+01 2.058504e+00) (-6.619957e-03 4.682491e-01 -1.106429e-02) (0.000000e+00 0.000000e+00 0.000000e+00)) ((6.694569e+00 -2.133666e+01 1.860424e+02) (-4.861706e-01 1.024036e-01 4.742988e+00) (0.000000e+00 0.000000e+00 0.000000e+00))
0.0001        	((-1.760593e+00 1.633645e+01 1.978085e+00) (-6.476527e-03 4.662276e-01 -1.051164e-02) (0.000000e+00 0.000000e+00 0.000000e+00)) ((6.135698e+00 -2.057566e+01 1.813290e+02) (-4.794266e-01 9.693980e-02 4.721368e+00) (0.000000e+00 0.000000e+00 0.000000e+00))
0.0001025     	((-1.731194e+00 1.617026e+01 1.948527e+00) (-6.844664e-03 4.727215e-01 -1.016359e-02) (0.000000e+00 0.000000e+00 0.000000e+00)) ((5.902876e+00 -2.028060e+01 1.793940e+02) (-4.794327e-01 9.324254e-02 4.789814e+00) (0.000000e+00 0.000000e+00 0.000000e+00))
0.000105      	((-1.623276e+00 1.622301e+01 1.967207e+00) (-7.116618e-03 4.764411e-01 -9.062450e-03) (0.000000e+00 0.000000e+00 0.000000e+00)) ((6.052363e+00 -2.041696e+01 1.788137e+02) (-4.704048e-01 8.208935e-02 4.829688e+00) (0.000000e+00 0.000000e+00 0.000000e+00))
0.0001075     	((-1.473778e+00 1.635517e+01 2.001919e+00) (-7.069908e-03 4.756345e-01 -9.045657e-03) (0.000000e+00 0.000000e+00 0.000000e+00)) ((6.333727e+00 -2.068502e+01 1.785817e+02) (-4.699859e-01 8.192215e-02 4.821273e+00) (0.000000e+00 0.000000e+00 0.000000e+00))
0.00011       	((-1.350173e+00 1.642213e+01 2.015648e+00) (-7.083526e-03 4.732368e-01 -9.360472e-03) (0.000000e+00 0.000000e+00 0.000000e+00)) ((6.445851e+00 -2.075621e+01 1.779615e+02) (-4.720105e-01 8.500075e-02 4.797566e+00) (0.000000e+00 0.000000e+00 0.000000e+00))
0.0001125     	((-1.256522e+00 1.638904e+01 2.008436e+00) (-6.977957e-03 4.720359e-01 -9.246168e-03) (0.000000e+00 0.000000e+00 0.000000e+00)) ((6.403586e+00 -2.063437e+01 1.766643e+02) (-4.703069e-01 8.386849e-02 4.784540e+00) (0.000000e+00 0.000000e+00 0.000000e+00))
0.000115      	((-1.182928e+00 1.631318e+01 1.985082e+00) (-6.817143e-03 4.710583e-01 -8.817374e-03) (0.000000e+00 0.000000e+00 0.000000e+00)) ((6.220974e+00 -2.035948e+01 1.751638e+02) (-4.654950e-01 7.963055e-02 4.773155e+00) (0.000000e+00 0.000000e+00 0.000000e+00))
0.0001175     	((-1.114013e+00 1.624751e+01 1.945541e+00) (-6.626584e-03 4.701821e-01 -8.452118e-03) (0.000000e+00 0.000000e+00 0.000000e+00)) ((5.866562e+00 -1.992087e+01 1.738227e+02) (-4.613544e-01 7.606856e-02 4.762495e+00) (0.000000e+00 0.000000e+00 0.000000e+00))
0.00012       	((-1.050490e+00 1.619919e+01 1.890987e+00) (-6.565115e-03 4.697261e-01 -8.227006e-03) (0.000000e+00 0.000000e+00 0.000000e+00)) ((5.348304e+00 -1.933016e+01 1.727089e+02) (-4.588818e-01 7.385488e-02 4.757338e+00) (0.000000e+00 0.000000e+00 0.000000e+00))
0.0001225     	((-9.992731e-01 1.617404e+01 1.836826e+00) (-6.586671e-03 4.695205e-01 -8.214551e-03) (0.000000e+00 0.000000e+00 0.000000e+00)) ((4.819096e+00 -1.874660e+01 1.719447e+02) (-4.587485e-01 7.375111e-02 4.755535e+00) (0.000000e+00 0.000000e+00 0.000000e+00))
0.000125      	((-9.609216e-01 1.615061e+01 1.789403e+00) (-6.581839e-03 4.690029e-01 -8.170579e-03) (0.000000e+00 0.000000e+00 0.000000e+00)) ((4.356352e+00 -1.823365e+01 1.713240e+02) (-4.580947e-01 7.335219e-02 4.750355e+00) (0.000000e+00 0.000000e+00 0.000000e+00))
0.0001275     	((-9.315385e-01 1.612514e+01 1.752577e+00) (-6.509523e-03 4.682298e-01 -8.064460e-03) (0.000000e+00 0.000000e+00 0.000000e+00)) ((4.002110e+00 -1.782892e+01 1.707743e+02) (-4.566921e-01 7.238794e-02 4.741951e+00) (0.000000e+00 0.000000e+00 0.000000e+00))
0.00013       	((-9.067473e-01 1.609946e+01 1.728027e+00) (-6.372661e-03 4.672923e-01 -8.009631e-03) (0.000000e+00 0.000000e+00 0.000000e+00)) ((3.772464e+00 -1.754741e+01 1.702734e+02) (-4.557117e-01 7.197606e-02 4.731246e+00) (0.000000e+00 0.000000e+00 0.000000e+00))
0.0001325     	((-8.835997e-01 1.607709e+01 1.715260e+00) (-6.218235e-03 4.663551e-01 -8.007916e-03) (0.000000e+00 0.000000e+00 0.000000e+00)) ((3.660147e+00 -1.738390e+01 1.698281e+02) (-4.552947e-01 7.210853e-02 4.720369e+00) (0.000000e+00 0.000000e+00 0.000000e+00))
0.000135      	((-8.614352e-01 1.605918e+01 1.712638e+00) (-6.062270e-03 4.653974e-01 -8.022429e-03) (0.000000e+00 0.000000e+00 0.000000e+00)) ((3.647236e+00 -1.732289e+01 1.694422e+02) (-4.550294e-01 7.240684e-02 4.709276e+00) (0.000000e+00 0.000000e+00 0.000000e+00))
0.0001375     	((-8.382513e-01 1.604487e+01 1.718533e+00) (-5.911225e-03 4.645657e-01 -8.033948e-03) (0.000000e+00 0.000000e+00 0.000000e+00)) ((3.717060e+00 -1.734923e+01 1.690835e+02) (-4.548108e-01 7.267624e-02 4.699498e+00) (0.000000e+00 0.000000e+00 0.000000e+00))
0.00014       	((-8.080324e-01 1.603212e+01 1.732317e+00) (-5.731032e-03 4.637576e-01 -8.039798e-03) (0.000000e+00 0.000000e+00 0.000000e+00)) ((3.863970e+00 -1.745526e+01 1.686653e+02) (-4.545101e-01 7.289681e-02 4.689655e+00) (0.000000e+00 0.000000e+00 0.000000e+00))
0.0001425     	((-7.652270e-01 1.601883e+01 1.753028e+00) (-5.505568e-03 4.630499e-01 -8.022539e-03) (0.000000e+00 0.000000e+00 0.000000e+00)) ((4.079410e+00 -1.763019e+01 1.681057e+02) (-4.540117e-01 7.290855e-02 4.680346e+00) (0.000000e+00 0.000000e+00 0.000000e+00))
0.000145      	((-7.073309e-01 1.600443e+01 1.779673e+00) (-5.220484e-03 4.623453e-01 -7.961992e-03) (0.000000e+00 0.000000e+00 0.000000e+00)) ((4.353831e+00 -1.786293e+01 1.673717e+02) (-4.530160e-01 7.250305e-02 4.670435e+00) (0.000000e+00 0.000000e+00 0.000000e+00))
0.0001475     	((-6.363162e-01 1.598971e+01 1.809430e+00) (-4.871716e-03 4.617312e-01 -7.852414e-03) (0.000000e+00 0.000000e+00 0.000000e+00)) ((4.658344e+00 -1.812588e+01 1.664917e+02) (-4.515402e-01 7.162461e-02 4.660745e+00) (0.000000e+00 0.000000e+00 0.000000e+00))
0.00015       	((-5.574379e-01 1.597609e+01 1.838961e+00) (-4.453907e-03 4.611387e-01 -7.736039e-03) (0.000000e+00 0.000000e+00 0.000000e+00)) ((4.958158e+00 -1.838706e+01 1.655356e+02) (-4.499555e-01 7.069621e-02 4.650521e+00) (0.000000e+00 0.000000e+00 0.000000e+00))
0.0001525     	((-4.783161e-01 1.596468e+01 1.865379e+00) (-3.997555e-03 4.606223e-01 -7.630199e-03) (0.000000e+00 0.000000e+00 0.000000e+00)) ((5.223450e+00 -1.862002e+01 1.645947e+02) (-4.485137e-01 6.988593e-02 4.640635e+00) (0.000000e+00 0.000000e+00 0.000000e+00))
0.000155      	((-4.050275e-01 1.595451e+01 1.887205e+00) (-3.542784e-03 4.600861e-01 -7.541613e-03) (0.000000e+00 0.000000e+00 0.000000e+00)) ((5.440027e+00 -1.881092e+01 1.637244e+02) (-4.472221e-01 6.923641e-02 4.630549e+00) (0.000000e+00 0.000000e+00 0.000000e+00))
0.0001575     	((-3.427733e-01 1.594427e+01 1.904063e+00) (-3.133283e-03 4.595681e-01 -7.489697e-03) (0.000000e+00 0.000000e+00 0.000000e+00)) ((5.605504e+00 -1.895675e+01 1.629673e+02) (-4.463378e-01 6.893261e-02 4.621112e+00) (0.000000e+00 0.000000e+00 0.000000e+00))
0.00016       	((-2.953515e-01 1.593382e+01 1.916357e+00) (-2.791532e-03 4.590048e-01 -7.478952e-03) (0.000000e+00 0.000000e+00 0.000000e+00)) ((5.724567e+00 -1.906180e+01 1.623629e+02) (-4.458531e-01 6.900303e-02 4.611922e+00) (0.000000e+00 0.000000e+00 0.000000e+00))
0.0001625     	((-2.655299e-01 1.592483e+01 1.924124e+00) (-2.531632e-03 4.584422e-01 -7.455206e-03) (0.000000e+00 0.000000e+00 0.000000e+00)) ((5.796840e+00 -1.912728e+01 1.619578e+02) (-4.452559e-01 6.891539e-02 4.603605e+00) (0.000000e+00 0.000000e+00 0.000000e+00))
0.000165      	((-2.556299e-01 1.591949e+01 1.928710e+00) (-2.363971e-03 4.578922e-01 -7.445291e-03) (0.000000e+00 0.000000e+00 0.000000e+00)) ((5.835010e+00 -1.916761e+01 1.617985e+02) (-4.448033e-01 6.892497e-02 4.596380e+00) (0.000000e+00 0.000000e+00 0.000000e+00))
0.0001675     	((-2.655142e-01 1.592005e+01 1.930802e+00) (-2.291208e-03 4.574345e-01 -7.442903e-03) (0.000000e+00 0.000000e+00 0.000000e+00)) ((5.844986e+00 -1.919043e+01 1.619059e+02) (-4.444924e-01 6.897830e-02 4.591074e+00) (0.000000e+00 0.000000e+00 0.000000e+00))
0.00017       	((-2.924204e-01 1.592716e+01 1.931202e+00) (-2.294087e-03 4.570640e-01 -7.432177e-03) (0.000000e+00 0.000000e+00 0.000000e+00)) ((5.834732e+00 -1.920313e+01 1.622573e+02) (-4.441341e-01 6.891067e-02 4.587427e+00) (0.000000e+00 0.000000e+00 0.000000e+00))
0.0001725     	((-3.335576e-01 1.593947e+01 1.930228e+00) (-2.362074e-03 4.567765e-01 -7.417450e-03) (0.000000e+00 0.000000e+00 0.000000e+00)) ((5.808338e+00 -1.920850e+01 1.628100e+02) (-4.438152e-01 6.877931e-02 4.585289e+00) (0.000000e+00 0.000000e+00 0.000000e+00))
0.000175      	((-3.841636e-01 1.595419e+01 1.927958e+00) (-2.483247e-03 4.564908e-01 -7.398672e-03) (0.000000e+00 0.000000e+00 0.000000e+00)) ((5.768047e+00 -1.920571e+01 1.634861e+02) (-4.434813e-01 6.857609e-02 4.583716e+00) (0.000000e+00 0.000000e+00 0.000000e+00))
0.0001775     	((-4.399129e-01 1.596896e+01 1.924242e+00) (-2.622263e-03 4.562245e-01 -7.411310e-03) (0.000000e+00 0.000000e+00 0.000000e+00)) ((5.713695e+00 -1.919187e+01 1.642167e+02) (-4.435397e-01 6.867669e-02 4.582520e+00) (0.000000e+00 0.000000e+00 0.000000e+00))
0.00018       	((-4.954260e-01 1.598156e+01 1.919364e+00) (-2.766308e-03 4.559107e-01 -7.452518e-03) (0.000000e+00 0.000000e+00 0.000000e+00)) ((5.649391e+00 -1.916766e+01 1.649235e+02) (-4.439054e-01 6.904504e-02 4.580883e+00) (0.000000e+00 0.000000e+00 0.000000e+00))
0.0001825     	((-5.456767e-01 1.599052e+01 1.913854e+00) (-2.883605e-03 4.555732e-01 -7.525163e-03) (0.000000e+00 0.000000e+00 0.000000e+00)) ((5.581290e+00 -1.913642e+01 1.655393e+02) (-4.446452e-01 6.973309e-02 4.578724e+00) (0.000000e+00 0.000000e+00 0.000000e+00))
0.000185      	((-5.857659e-01 1.599499e+01 1.908676e+00) (-2.975020e-03 4.551690e-01 -7.612157e-03) (0.000000e+00 0.000000e+00 0.000000e+00)) ((5.519370e+00 -1.910554e+01 1.660042e+02) (-4.455316e-01 7.055966e-02 4.575614e+00) (0.000000e+00 0.000000e+00 0.000000e+00))
0.0001875     	((-6.126601e-01 1.599470e+01 1.904668e+00) (-3.031318e-03 4.547607e-01 -7.711283e-03) (0.000000e+00 0.000000e+00 0.000000e+00)) ((5.472180e+00 -1.908235e+01 1.662833e+02) (-4.465816e-01 7.151526e-02 4.572089e+00) (0.000000e+00 0.000000e+00 0.000000e+00))
0.00019       	((-6.244612e-01 1.599002e+01 1.902579e+00) (-3.066446e-03 4.543318e-01 -7.797796e-03) (0.000000e+00 0.000000e+00 0.000000e+00)) ((5.446927e+00 -1.907347e+01 1.663600e+02) (-4.474942e-01 7.233803e-02 4.568122e+00) (0.000000e+00 0.000000e+00 0.000000e+00))
0.0001925     	((-6.206855e-01 1.598197e+01 1.902496e+00) (-3.076908e-03 4.539527e-01 -7.866945e-03) (0.000000e+00 0.000000e+00 0.000000e+00)) ((5.443867e+00 -1.907947e+01 1.662388e+02) (-4.482662e-01 7.299638e-02 4.564398e+00) (0.000000e+00 0.000000e+00 0.000000e+00))
0.000195      	((-6.029099e-01 1.597157e+01 1.904324e+00) (-3.065676e-03 4.535761e-01 -7.894697e-03) (0.000000e+00 0.000000e+00 0.000000e+00)) ((5.461433e+00 -1.909936e+01 1.659467e+02) (-4.485913e-01 7.324293e-02 4.560472e+00) (0.000000e+00 0.000000e+00 0.000000e+00))
0.0001975     	((-5.752380e-01 1.596016e+01 1.907079e+00) (-3.032653e-03 4.532583e-01 -7.889625e-03) (0.000000e+00 0.000000e+00 0.000000e+00)) ((5.489001e+00 -1.912443e+01 1.655404e+02) (-4.486013e-01 7.317345e-02 4.556913e+00) (0.000000e+00 0.000000e+00 0.000000e+00))
0.0002        	((-5.427508e-01 1.594940e+01 1.909955e+00) (-2.997405e-03 4.529682e-01 -7.849653e-03) (0.000000e+00 0.000000e+00 0.000000e+00)) ((5.517529e+00 -1.914791e+01 1.650898e+02) (-4.482326e-01 7.275137e-02 4.553607e+00) (0.000000e+00 0.000000e+00 0.000000e+00))
0.0002025     	((-5.108167e-01 1.594077e+01 1.912160e+00) (-2.957725e-03 4.527596e-01 -7.797317e-03) (0.000000e+00 0.000000e+00 0.000000e+00)) ((5.538305e+00 -1.916367e+01 1.646665e+02) (-4.477714e-01 7.221421e-02 4.551076e+00) (0.000000e+00 0.000000e+00 0.000000e+00))
0.000205      	((-4.832004e-01 1.593500e+01 1.913673e+00) (-2.928169e-03 4.525823e-01 -7.739155e-03) (0.000000e+00 0.000000e+00 0.000000e+00)) ((5.550902e+00 -1.917237e+01 1.643174e+02) (-4.472362e-01 7.161467e-02 4.548967e+00) (0.000000e+00 0.000000e+00 0.000000e+00))
0.0002075     	((-4.630405e-01 1.593205e+01 1.914427e+00) (-2.904664e-03 4.524747e-01 -7.697172e-03) (0.000000e+00 0.000000e+00 0.000000e+00)) ((5.554987e+00 -1.917437e+01 1.640755e+02) (-4.468947e-01 7.118602e-02 4.547632e+00) (0.000000e+00 0.000000e+00 0.000000e+00))
0.00021       	((-4.525229e-01 1.593184e+01 1.914310e+00) (-2.910327e-03 4.524094e-01 -7.665278e-03) (0.000000e+00 0.000000e+00 0.000000e+00)) ((5.549536e+00 -1.916924e+01 1.639630e+02) (-4.466461e-01 7.084790e-02 4.547031e+00) (0.000000e+00 0.000000e+00 0.000000e+00))
0.0002125     	((-4.522203e-01 1.593415e+01 1.913136e+00) (-2.935087e-03 4.524279e-01 -7.643913e-03) (0.000000e+00 0.000000e+00 0.000000e+00)) ((5.532800e+00 -1.915573e+01 1.639834e+02) (-4.465394e-01 7.061841e-02 4.547476e+00) (0.000000e+00 0.000000e+00 0.000000e+00))
0.000215      	((-4.600099e-01 1.593874e+01 1.910935e+00) (-2.994253e-03 4.524707e-01 -7.616496e-03) (0.000000e+00 0.000000e+00 0.000000e+00)) ((5.505088e+00 -1.913353e+01 1.641121e+02) (-4.463492e-01 7.031648e-02 4.548525e+00) (0.000000e+00 0.000000e+00 0.000000e+00))
0.0002175     	((-4.732279e-01 1.594493e+01 1.907766e+00) (-3.070183e-03 4.525400e-01 -7.588412e-03) (0.000000e+00 0.000000e+00 0.000000e+00)) ((5.467324e+00 -1.910272e+01 1.643143e+02) (-4.461561e-01 7.001165e-02 4.550023e+00) (0.000000e+00 0.000000e+00 0.000000e+00))
0.00022       	((-4.889542e-01 1.595216e+01 1.903895e+00) (-3.151324e-03 4.525828e-01 -7.557251e-03) (0.000000e+00 0.000000e+00 0.000000e+00)) ((5.422395e+00 -1.906513e+01 1.645537e+02) (-4.458895e-01 6.967403e-02 4.551310e+00) (0.000000e+00 0.000000e+00 0.000000e+00))
0.0002225     	((-5.050225e-01 1.596027e+01 1.899535e+00) (-3.221165e-03 4.526219e-01 -7.527056e-03) (0.000000e+00 0.000000e+00 0.000000e+00)) ((5.372440e+00 -1.902273e+01 1.648058e+02) (-4.456356e-01 6.935708e-02 4.552448e+00) (0.000000e+00 0.000000e+00 0.000000e+00))
0.000225      	((-5.194335e-01 1.596901e+01 1.895165e+00) (-3.289516e-03 4.525991e-01 -7.494329e-03) (0.000000e+00 0.000000e+00 0.000000e+00)) ((5.322215e+00 -1.897986e+01 1.650475e+02) (-4.453126e-01 6.901242e-02 4.552948e+00) (0.000000e+00 0.000000e+00 0.000000e+00))
0.0002275     	((-5.306082e-01 1.597784e+01 1.891348e+00) (-3.344771e-03 4.525410e-01 -7.471728e-03) (0.000000e+00 0.000000e+00 0.000000e+00)) ((5.277716e+00 -1.894194e+01 1.652568e+02) (-4.450908e-01 6.877630e-02 4.552958e+00) (0.000000e+00 0.000000e+00 0.000000e+00))
0.00023       	((-5.369312e-01 1.598604e+01 1.888831e+00) (-3.385881e-03 4.524078e-01 -7.451899e-03) (0.000000e+00 0.000000e+00 0.000000e+00)) ((5.246836e+00 -1.891586e+01 1.654099e+02) (-4.448530e-01 6.856739e-02 4.552067e+00) (0.000000e+00 0.000000e+00 0.000000e+00))
0.0002325     	((-5.368485e-01 1.599298e+01 1.888157e+00) (-3.394745e-03 4.522527e-01 -7.435126e-03) (0.000000e+00 0.000000e+00 0.000000e+00)) ((5.235412e+00 -1.890673e+01 1.654838e+02) (-4.446545e-01 6.840457e-02 4.550625e+00) (0.000000e+00 0.000000e+00 0.000000e+00))
0.000235      	((-5.287359e-01 1.599810e+01 1.889314e+00) (-3.384395e-03 4.520504e-01 -7.415290e-03) (0.000000e+00 0.000000e+00 0.000000e+00)) ((5.243495e+00 -1.891390e+01 1.654558e+02) (-4.443885e-01 6.821142e-02 4.548505e+00) (0.000000e+00 0.000000e+00 0.000000e+00))
0.0002375     	((-5.121502e-01 1.600126e+01 1.891960e+00) (-3.346748e-03 4.518581e-01 -7.395270e-03) (0.000000e+00 0.000000e+00 0.000000e+00)) ((5.267607e+00 -1.893398e+01 1.653193e+02) (-4.441353e-01 6.802717e-02 4.546200e+00) (0.000000e+00 0.000000e+00 0.000000e+00))
0.00024       	((-4.877493e-01 1.600259e+01 1.895593e+00) (-3.285939e-03 4.516487e-01 -7.366144e-03) (0.000000e+00 0.000000e+00 0.000000e+00)) ((5.302432e+00 -1.896198e+01 1.650823e+02) (-4.437626e-01 6.775347e-02 4.543476e+00) (0.000000e+00 0.000000e+00 0.000000e+00))
0.0002425     	((-4.575053e-01 1.600220e+01 1.899608e+00) (-3.201335e-03 4.514750e-01 -7.325570e-03) (0.000000e+00 0.000000e+00 0.000000e+00)) ((5.341684e+00 -1.899244e+01 1.647664e+02) (-4.432959e-01 6.737725e-02 4.540865e+00) (0.000000e+00 0.000000e+00 0.000000e+00))
0.000245      	((-4.240962e-01 1.600044e+01 1.903336e+00) (-3.102088e-03 4.512980e-01 -7.280374e-03) (0.000000e+00 0.000000e+00 0.000000e+00)) ((5.378318e+00 -1.901922e+01 1.644030e+02) (-4.427596e-01 6.695567e-02 4.538065e+00) (0.000000e+00 0.000000e+00 0.000000e+00))
0.0002475     	((-3.906226e-01 1.599788e+01 1.906155e+00) (-2.986890e-03 4.511621e-01 -7.240421e-03) (0.000000e+00 0.000000e+00 0.000000e+00)) ((5.405773e+00 -1.903708e+01 1.640302e+02) (-4.423046e-01 6.659589e-02 4.535513e+00) (0.000000e+00 0.000000e+00 0.000000e+00))
0.00025       	((-3.600498e-01 1.599531e+01 1.907734e+00) (-2.873882e-03 4.510326e-01 -7.202403e-03) (0.000000e+00 0.000000e+00 0.000000e+00)) ((5.420316e+00 -1.904338e+01 1.636871e+02) (-4.418600e-01 6.625221e-02 4.533047e+00) (0.000000e+00 0.000000e+00 0.000000e+00))
0.0002525     	((-3.351966e-01 1.599338e+01 1.907950e+00) (-2.768458e-03 4.509455e-01 -7.175058e-03) (0.000000e+00 0.000000e+00 0.000000e+00)) ((5.420556e+00 -1.903771e+01 1.634096e+02) (-4.415570e-01 6.601733e-02 4.531087e+00) (0.000000e+00 0.000000e+00 0.000000e+00))
0.000255      	((-3.183277e-01 1.599257e+01 1.906901e+00) (-2.687043e-03 4.508724e-01 -7.160611e-03) (0.000000e+00 0.000000e+00 0.000000e+00)) ((5.407420e+00 -1.902155e+01 1.632267e+02) (-4.413807e-01 6.590254e-02 4.529520e+00) (0.000000e+00 0.000000e+00 0.000000e+00))
0.0002575     	((-3.110175e-01 1.599310e+01 1.904782e+00) (-2.626946e-03 4.508547e-01 -7.157811e-03) (0.000000e+00 0.000000e+00 0.000000e+00)) ((5.382938e+00 -1.899738e+01 1.631567e+02) (-4.413600e-01 6.590241e-02 4.528736e+00) (0.000000e+00 0.000000e+00 0.000000e+00))
0.00026       	((-3.135344e-01 1.599494e+01 1.901728e+00) (-2.605048e-03 4.508569e-01 -7.165076e-03) (0.000000e+00 0.000000e+00 0.000000e+00)) ((5.348612e+00 -1.896656e+01 1.632025e+02) (-4.414337e-01 6.598619e-02 4.528546e+00) (0.000000e+00 0.000000e+00 0.000000e+00))
0.0002625     	((-3.251881e-01 1.599804e+01 1.897943e+00) (-2.611445e-03 4.509121e-01 -7.177782e-03) (0.000000e+00 0.000000e+00 0.000000e+00)) ((5.306598e+00 -1.893110e+01 1.633563e+02) (-4.415959e-01 6.611901e-02 4.529186e+00) (0.000000e+00 0.000000e+00 0.000000e+00))
0.000265      	((-3.441956e-01 1.600231e+01 1.893730e+00) (-2.648251e-03 4.509779e-01 -7.190466e-03) (0.000000e+00 0.000000e+00 0.000000e+00)) ((5.259994e+00 -1.889357e+01 1.635984e+02) (-4.417491e-01 6.623959e-02 4.530249e+00) (0.000000e+00 0.000000e+00 0.000000e+00))
0.0002675     	((-3.682031e-01 1.600742e+01 1.889259e+00) (-2.706716e-03 4.510691e-01 -7.206171e-03) (0.000000e+00 0.000000e+00 0.000000e+00)) ((5.210692e+00 -1.885511e+01 1.639010e+02) (-4.419523e-01 6.638444e-02 4.531790e+00) (0.000000e+00 0.000000e+00 0.000000e+00))
0.00027       	((-3.944009e-01 1.601302e+01 1.884792e+00) (-2.779820e-03 4.511425e-01 -7.221820e-03) (0.000000e+00 0.000000e+00 0.000000e+00)) ((5.161446e+00 -1.881748e+01 1.642313e+02) (-4.421370e-01 6.651965e-02 4.533299e+00) (0.000000e+00 0.000000e+00 0.000000e+00))
0.0002725     	((-4.202413e-01 1.601881e+01 1.880645e+00) (-2.852100e-03 4.512146e-01 -7.235420e-03) (0.000000e+00 0.000000e+00 0.000000e+00)) ((5.115513e+00 -1.878319e+01 1.645595e+02) (-4.423183e-01 6.663756e-02 4.534786e+00) (0.000000e+00 0.000000e+00 0.000000e+00))
0.000275      	((-4.433566e-01 1.602450e+01 1.877005e+00) (-2.930032e-03 4.512431e-01 -7.253134e-03) (0.000000e+00 0.000000e+00 0.000000e+00)) ((5.074868e+00 -1.875338e+01 1.648584e+02) (-4.425179e-01 6.678998e-02 4.535888e+00) (0.000000e+00 0.000000e+00 0.000000e+00))