# Forces      
# CofR        : (0.000000e+00 0.000000e+00 0.000000e+00)
# Time        forces(pressure viscous porous)	moments(pressure viscous porous)
2.5e-06       	((1.599819e-01 2.198516e+01 6.921515e-01) (-1.410137e-02 6.185503e-01 1.322202e-02) (0.000000e+00 0.000000e+00 0.000000e+00)) ((-1.477197e+01 -6.441753e+00 2.180489e+02) (-5.212935e-01 -1.470622e-01 6.308793e+00) (0.000000e+00 0.000000e+00 0.000000e+00))
5e-06         	((-5.905046e+00 9.066108e+01 1.761946e+00) (-6.506276e-03 8.078498e-01 3.598274e-03) (0.000000e+00 0.000000e+00 0.000000e+00)) ((-7.129807e+01 -2.299233e+01 9.651042e+02) (-7.270392e-01 -4.300668e-02 8.125013e+00) (0.000000e+00 0.000000e+00 0.000000e+00))
7.5e-06       	((-2.310406e+01 1.873347e+02 1.199129e+01) (-6.841701e-03 8.388316e-01 -7.963549e-03) (0.000000e+00 0.000000e+00 0.000000e+00)) ((-6.909746e+01 -1.419812e+02 2.104338e+03) (-8.243602e-01 7.242075e-02 8.440069e+00) (0.000000e+00 0.000000e+00 0.000000e+00))
1e-05         	((-1.068285e+01 1.241159e+02 -1.745536e+00) (2.950900e-02 7.282021e-01 -3.798526e-02) (0.000000e+00 0.000000e+00 0.000000e+00)) ((-1.363486e+02 9.377642e+00 1.347768e+03) (-1.017323e+00 4.149167e-01 6.963844e+00) (0.000000e+00 0.000000e+00 0.000000e+00))
1.25e-05      	((1.041034e+01 3.288169e+01 -1.361239e+01) (3.398180e-02 6.872355e-01 -2.304709e-02) (0.000000e+00 0.000000e+00 0.000000e+00)) ((-1.590805e+02 1.501669e+02 2.237472e+02) (-8.326821e-01 2.690198e-01 6.511559e+00) (0.000000e+00 0.000000e+00 0.000000e+00))
1.5e-05       	((1.071699e+01 4.255131e+00 -9.375875e+00) (2.199067e-02 6.309211e-01 -7.927160e-03) (0.000000e+00 0.000000e+00 0.000000e+00)) ((-8.981276e+01 1.074921e+02 -6.532767e+01) (-6.330895e-01 1.033391e-01 6.074939e+00) (0.000000e+00 0.000000e+00 0.000000e+00))
1.75e-05      	((2.321027e-01 1.565337e+01 1.043541e+00) (9.526469e-03 6.094772e-01 1.017308e-02) (0.000000e+00 0.000000e+00 0.000000e+00)) ((-1.435389e+00 -8.581891e+00 1.541353e+02) (-4.392774e-01 -8.969578e-02 5.987770e+00) (0.000000e+00 0.000000e+00 0.000000e+00))
2e-05         	((-5.700054e+00 2.946474e+01 6.162456e+00) (-6.559447e-03 6.007220e-01 1.095635e-02) (0.000000e+00 0.000000e+00 0.000000e+00)) ((3.290552e+01 -6.648216e+01 3.517279e+02) (-4.261678e-01 -1.153676e-01 6.062430e+00) (0.000000e+00 0.000000e+00 0.000000e+00))
2.25e-05      	((-5.492958e+00 2.948011e+01 3.937744e+00) (-1.511488e-02 5.882352e-01 1.836323e-04) (0.000000e+00 0.000000e+00 0.000000e+00)) ((1.006038e+01 -4.420867e+01 3.497082e+02) (-5.207663e-01 -1.781899e-02 6.023179e+00) (0.000000e+00 0.000000e+00 0.000000e+00))
2.5e-05       	((-2.720725e+00 1.934680e+01 -1.266931e+00) (-1.627653e-02 5.732786e-01 -9.974515e-03) (0.000000e+00 0.000000e+00 0.000000e+00)) ((-3.083695e+01 1.075052e+01 2.206316e+02) (-6.052938e-01 8.232177e-02 5.885039e+00) (0.000000e+00 0.000000e+00 0.000000e+00))
2.75e-05      	((-1.019143e+00 1.110851e+01 -3.981894e+00) (-1.320908e-02 5.521262e-01 -1.409417e-02) (0.000000e+00 0.000000e+00 0.000000e+00)) ((-4.866809e+01 3.977561e+01 1.213287e+02) (-6.223209e-01 1.272857e-01 5.643657e+00) (0.000000e+00 0.000000e+00 0.000000e+00))
3e-05         	((-1.273474e+00 1.092367e+01 -2.522764e+00) (-1.037089e-02 5.352083e-01 -1.042319e-02) (0.000000e+00 0.000000e+00 0.000000e+00)) ((-3.361448e+01 2.499836e+01 1.220833e+02) (-5.666058e-01 9.426507e-02 5.446955e+00) (0.000000e+00 0.000000e+00 0.000000e+00))
3.25e-05      	((-2.314334e+00 1.572921e+01 7.252154e-01) (-9.726683e-03 5.292258e-01 -3.718536e-03) (0.000000e+00 0.000000e+00 0.000000e+00)) ((-6.374318e+00 -8.561812e+00 1.804845e+02) (-4.937479e-01 2.829738e-02 5.381077e+00) (0.000000e+00 0.000000e+00 0.000000e+00))
3.5e-05       	((-2.820289e+00 1.930286e+01 2.591722e+00) (-1.079935e-02 5.295905e-01 1.147009e-03) (0.000000e+00 0.000000e+00 0.000000e+00)) ((8.131423e+00 -2.780859e+01 2.211578e+02) (-4.471999e-01 -2.155561e-02 5.395363e+00) (0.000000e+00 0.000000e+00 0.000000e+00))
3.75e-05      	((-2.508486e+00 1.880934e+01 2.082450e+00) (-1.217649e-02 5.278718e-01 2.835266e-03) (0.000000e+00 0.000000e+00 0.000000e+00)) ((3.227153e+00 -2.246639e+01 2.130312e+02) (-4.306758e-01 -4.011251e-02 5.391829e+00) (0.000000e+00 0.000000e+00 0.000000e+00))
4e-05         	((-1.935585e+00 1.595718e+01 5.044490e-01) (-1.300330e-02 5.203611e-01 1.897235e-03) (0.000000e+00 0.000000e+00 0.000000e+00)) ((-9.672586e+00 -6.151240e+00 1.787985e+02) (-4.340530e-01 -3.176175e-02 5.324986e+00) (0.000000e+00 0.000000e+00 0.000000e+00))
4.25e-05      	((-1.655571e+00 1.382648e+01 -4.398231e-01) (-1.326364e-02 5.096286e-01 2.623188e-04) (0.000000e+00 0.000000e+00 0.000000e+00)) ((-1.681948e+01 3.555711e+00 1.547560e+02) (-4.406489e-01 -1.570164e-02 5.220450e+00) (0.000000e+00 0.000000e+00 0.000000e+00))
4.5e-05       	((-1.761177e+00 1.380151e+01 -1.628616e-01) (-1.326935e-02 5.003855e-01 -4.670530e-04) (0.000000e+00 0.000000e+00 0.000000e+00)) ((-1.392386e+01 6.770391e-01 1.556071e+02) (-4.394933e-01 -8.321786e-03 5.128298e+00) (0.000000e+00 0.000000e+00 0.000000e+00))
4.75e-05      	((-2.000232e+00 1.508416e+01 7.265771e-01) (-1.348224e-02 4.954328e-01 5.130428e-05) (0.000000e+00 0.000000e+00 0.000000e+00)) ((-6.347012e+00 -8.461292e+00 1.708204e+02) (-4.301457e-01 -1.362092e-02 5.081076e+00) (0.000000e+00 0.000000e+00 0.000000e+00))
5e-05         	((-2.118310e+00 1.615585e+01 1.362704e+00) (-1.392788e-02 4.939279e-01 1.174994e-03) (0.000000e+00 0.000000e+00 0.000000e+00)) ((-1.177447e+00 -1.495693e+01 1.826842e+02) (-4.182608e-01 -2.527017e-02 5.070611e+00) (0.000000e+00 0.000000e+00 0.000000e+00))
5.25e-05      	((-2.059260e+00 1.623481e+01 1.408259e+00) (-1.440009e-02 4.935342e-01 2.011200e-03) (0.000000e+00 0.000000e+00 0.000000e+00)) ((-9.159619e-01 -1.537985e+01 1.828542e+02) (-4.103775e-01 -3.414773e-02 5.071490e+00) (0.000000e+00 0.000000e+00 0.000000e+00))
5.5e-05       	((-1.943066e+00 1.566264e+01 1.143405e+00) (-1.447250e-02 4.924752e-01 2.125729e-03) (0.000000e+00 0.000000e+00 0.000000e+00)) ((-3.043729e+00 -1.264033e+01 1.759650e+02) (-4.088718e-01 -3.549826e-02 5.061678e+00) (0.000000e+00 0.000000e+00 0.000000e+00))
5.75e-05      	((-1.866161e+00 1.501548e+01 8.858727e-01) (-1.452261e-02 4.904087e-01 1.881887e-03) (0.000000e+00 0.000000e+00 0.000000e+00)) ((-4.966494e+00 -1.000590e+01 1.687384e+02) (-4.097381e-01 -3.316596e-02 5.041605e+00) (0.000000e+00 0.000000e+00 0.000000e+00))
6e-05         	((-1.871723e+00 1.470515e+01 8.174060e-01) (-1.442767e-02 4.879619e-01 1.357903e-03) (0.000000e+00 0.000000e+00 0.000000e+00)) ((-5.313681e+00 -9.334793e+00 1.657110e+02) (-4.130045e-01 -2.789193e-02 5.016293e+00) (0.000000e+00 0.000000e+00 0.000000e+00))
6.25e-05      	((-1.940478e+00 1.478040e+01 9.243921e-01) (-1.434511e-02 4.856621e-01 8.698574e-04) (0.000000e+00 0.000000e+00 0.000000e+00)) ((-4.302966e+00 -1.047467e+01 1.671652e+02) (-4.159976e-01 -2.297491e-02 4.992603e+00) (0.000000e+00 0.000000e+00 0.000000e+00))
6.5e-05       	((-2.029024e+00 1.503281e+01 1.084137e+00) (-1.434952e-02 4.837951e-01 5.881466e-04) (0.000000e+00 0.000000e+00 0.000000e+00)) ((-2.963547e+00 -1.216040e+01 1.705787e+02) (-4.172985e-01 -2.018544e-02 4.974108e+00) (0.000000e+00 0.000000e+00 0.000000e+00))
6.75e-05      	((-2.104096e+00 1.523155e+01 1.196470e+00) (-1.447762e-02 4.824195e-01 3.931219e-04) (0.000000e+00 0.000000e+00 0.000000e+00)) ((-2.062298e+00 -1.335990e+01 1.733137e+02) (-4.181773e-01 -1.838017e-02 4.961742e+00) (0.000000e+00 0.000000e+00 0.000000e+00))
7e-05         	((-2.159890e+00 1.527074e+01 1.239059e+00) (-1.465315e-02 4.811963e-01 2.537075e-04) (0.000000e+00 0.000000e+00 0.000000e+00)) ((-1.705096e+00 -1.384414e+01 1.742588e+02) (-4.186207e-01 -1.716924e-02 4.951356e+00) (0.000000e+00 0.000000e+00 0.000000e+00))
7.25e-05      	((-2.205253e+00 1.518347e+01 1.246066e+00) (-1.482905e-02 4.799631e-01 7.554691e-05) (0.000000e+00 0.000000e+00 0.000000e+00)) ((-1.573051e+00 -1.396251e+01 1.738362e+02) (-4.194364e-01 -1.557319e-02 4.940840e+00) (0.000000e+00 0.000000e+00 0.000000e+00))
7.5e-05       	((-2.247701e+00 1.506429e+01 1.260650e+00) (-1.496043e-02 4.787340e-01 -1.710621e-04) (0.000000e+00 0.000000e+00 0.000000e+00)) ((-1.325266e+00 -1.415364e+01 1.730661e+02) (-4.209964e-01 -1.325511e-02 4.929896e+00) (0.000000e+00 0.000000e+00 0.000000e+00))
7.75e-05      	((-2.288326e+00 1.498787e+01 1.302823e+00) (-1.504931e-02 4.775530e-01 -4.570489e-04) (0.000000e+00 0.000000e+00 0.000000e+00)) ((-8.378860e-01 -1.461938e+01 1.727040e+02) (-4.230314e-01 -1.050048e-02 4.918979e+00) (0.000000e+00 0.000000e+00 0.000000e+00))
8e-05         	((-2.323100e+00 1.497586e+01 1.367956e+00) (-1.509477e-02 4.764685e-01 -7.289599e-04) (0.000000e+00 0.000000e+00 0.000000e+00)) ((-1.827216e-01 -1.531050e+01 1.729244e+02) (-4.250312e-01 -7.843858e-03 4.908563e+00) (0.000000e+00 0.000000e+00 0.000000e+00))
8.25e-05      	((-2.345111e+00 1.500869e+01 1.440202e+00) (-1.512294e-02 4.755210e-01 -9.437801e-04) (0.000000e+00 0.000000e+00 0.000000e+00)) ((4.981857e-01 -1.606253e+01 1.734618e+02) (-4.265874e-01 -5.740150e-03 4.899326e+00) (0.000000e+00 0.000000e+00 0.000000e+00))
8.5e-05       	((-2.351380e+00 1.505422e+01 1.509718e+00) (-1.514889e-02 4.746587e-01 -1.104180e-03) (0.000000e+00 0.000000e+00 0.000000e+00)) ((1.137876e+00 -1.677394e+01 1.739657e+02) (-4.276778e-01 -4.174870e-03 4.890912e+00) (0.000000e+00 0.000000e+00 0.000000e+00))
8.75e-05      	((-2.345052e+00 1.509104e+01 1.576580e+00) (-1.519996e-02 4.738501e-01 -1.230652e-03) (0.000000e+00 0.000000e+00 0.000000e+00)) ((1.759691e+00 -1.744780e+01 1.742552e+02) (-4.284843e-01 -2.978440e-03 4.883286e+00) (0.000000e+00 0.000000e+00 0.000000e+00))
9e-05         	((-2.333620e+00 1.511390e+01 1.642783e+00) (-1.522246e-02 4.730992e-01 -1.344582e-03) (0.000000e+00 0.000000e+00 0.000000e+00)) ((2.390158e+00 -1.811044e+01 1.743550e+02) (-4.292182e-01 -1.883709e-03 4.875944e+00) (0.000000e+00 0.000000e+00 0.000000e+00))
9.25e-05      	((-2.323890e+00 1.512698e+01 1.708364e+00) (-1.523474e-02 4.723915e-01 -1.438161e-03) (0.000000e+00 0.000000e+00 0.000000e+00)) ((3.026063e+00 -1.876808e+01 1.743762e+02) (-4.297796e-01 -9.790109e-04 4.868933e+00) (0.000000e+00 0.000000e+00 0.000000e+00))
9.5e-05       	((-2.318888e+00 1.513693e+01 1.771197e+00) (-1.525956e-02 4.717402e-01 -1.521713e-03) (0.000000e+00 0.000000e+00 0.000000e+00)) ((3.639153e+00 -1.940192e+01 1.744166e+02) (-4.302824e-01 -1.778041e-04 4.862621e+00) (0.000000e+00 0.000000e+00 0.000000e+00))
9.75e-05      	((-2.319561e+00 1.514815e+01 1.828131e+00) (-1.530531e-02 4.711769e-01 -1.598298e-03) (0.000000e+00 0.000000e+00 0.000000e+00)) ((4.193316e+00 -1.998129e+01 1.745298e+02) (-4.307856e-01 5.462907e-04 4.857412e+00) (0.000000e+00 0.000000e+00 0.000000e+00))
0.0001        	((-2.325789e+00 1.516233e+01 1.876422e+00) (-1.535541e-02 4.707157e-01 -1.670013e-03) (0.000000e+00 0.000000e+00 0.000000e+00)) ((4.659302e+00 -2.047882e+01 1.747313e+02) (-4.313182e-01 1.225917e-03 4.853285e+00) (0.000000e+00 0.000000e+00 0.000000e+00))
0.0001025     	((-2.337889e+00 1.517959e+01 1.916505e+00) (-1.541524e-02 4.703254e-01 -1.739623e-03) (0.000000e+00 0.000000e+00 0.000000e+00)) ((5.041093e+00 -2.089887e+01 1.750251e+02) (-4.318892e-01 1.885342e-03 4.849986e+00) (0.000000e+00 0.000000e+00 0.000000e+00))
0.000105      	((-2.354818e+00 1.519877e+01 1.949526e+00) (-1.551328e-02 4.700196e-01 -1.802871e-03) (0.000000e+00 0.000000e+00 0.000000e+00)) ((5.351000e+00 -2.125167e+01 1.753890e+02) (-4.324593e-01 2.463032e-03 4.847935e+00) (0.000000e+00 0.000000e+00 0.000000e+00))
0.0001075     	((-2.375260e+00 1.521854e+01 1.976472e+00) (-1.563224e-02 4.697995e-01 -1.858457e-03) (0.000000e+00 0.000000e+00 0.000000e+00)) ((5.599793e+00 -2.154551e+01 1.757959e+02) (-4.330246e-01 2.941105e-03 4.846969e+00) (0.000000e+00 0.000000e+00 0.000000e+00))
0.00011       	((-2.397900e+00 1.523746e+01 1.998071e+00) (-1.577983e-02 4.696552e-01 -1.900008e-03) (0.000000e+00 0.000000e+00 0.000000e+00)) ((5.795835e+00 -2.178645e+01 1.762175e+02) (-4.335122e-01 3.257040e-03 4.847063e+00) (0.000000e+00 0.000000e+00 0.000000e+00))
0.0001125     	((-2.421107e+00 1.525422e+01 2.015162e+00) (-1.594348e-02 4.695586e-01 -1.931764e-03) (0.000000e+00 0.000000e+00 0.000000e+00)) ((5.948522e+00 -2.198149e+01 1.766237e+02) (-4.339433e-01 3.458243e-03 4.847808e+00) (0.000000e+00 0.000000e+00 0.000000e+00))
0.000115      	((-2.442912e+00 1.526900e+01 2.027004e+00) (-1.611876e-02 4.695097e-01 -1.948218e-03) (0.000000e+00 0.000000e+00 0.000000e+00)) ((6.050188e+00 -2.212185e+01 1.769960e+02) (-4.342606e-01 3.496908e-03 4.849155e+00) (0.000000e+00 0.000000e+00 0.000000e+00))
0.0001175     	((-2.461713e+00 1.528155e+01 2.033569e+00) (-1.629255e-02 4.694731e-01 -1.946201e-03) (0.000000e+00 0.000000e+00 0.000000e+00)) ((6.100667e+00 -2.220607e+01 1.773152e+02) (-4.344106e-01 3.344938e-03 4.850618e+00) (0.000000e+00 0.000000e+00 0.000000e+00))
0.00012       	((-2.476077e+00 1.529129e+01 2.034549e+00) (-1.646562e-02 4.694824e-01 -1.931550e-03) (0.000000e+00 0.000000e+00 0.000000e+00)) ((6.097389e+00 -2.223037e+01 1.775608e+02) (-4.344683e-01 3.070872e-03 4.852535e+00) (0.000000e+00 0.000000e+00 0.000000e+00))
0.0001225     	((-2.486272e+00 1.529845e+01 2.031568e+00) (-1.661252e-02 4.694808e-01 -1.908468e-03) (0.000000e+00 0.000000e+00 0.000000e+00)) ((6.056264e+00 -2.221112e+01 1.777377e+02) (-4.344414e-01 2.726505e-03 4.854079e+00) (0.000000e+00 0.000000e+00 0.000000e+00))
0.000125      	((-2.491910e+00 1.530347e+01 2.025771e+00) (-1.675939e-02 4.694754e-01 -1.876763e-03) (0.000000e+00 0.000000e+00 0.000000e+00)) ((5.988344e+00 -2.215963e+01 1.778463e+02) (-4.343183e-01 2.306306e-03 4.855581e+00) (0.000000e+00 0.000000e+00 0.000000e+00))
0.0001275     	((-2.492927e+00 1.530680e+01 2.017370e+00) (-1.686866e-02 4.694620e-01 -1.827370e-03) (0.000000e+00 0.000000e+00 0.000000e+00)) ((5.895464e+00 -2.207819e+01 1.778905e+02) (-4.339943e-01 1.731592e-03 4.856619e+00) (0.000000e+00 0.000000e+00 0.000000e+00))
0.00013       	((-2.490557e+00 1.530907e+01 2.007425e+00) (-1.694788e-02 4.693833e-01 -1.772728e-03) (0.000000e+00 0.000000e+00 0.000000e+00)) ((5.787759e+00 -2.197823e+01 1.778891e+02) (-4.335615e-01 1.127083e-03 4.856697e+00) (0.000000e+00 0.000000e+00 0.000000e+00))
0.0001325     	((-2.485748e+00 1.531088e+01 1.995835e+00) (-1.700643e-02 4.692652e-01 -1.720291e-03) (0.000000e+00 0.000000e+00 0.000000e+00)) ((5.663793e+00 -2.185977e+01 1.778580e+02) (-4.331009e-01 5.690107e-04 4.856165e+00) (0.000000e+00 0.000000e+00 0.000000e+00))
0.000135      	((-2.479435e+00 1.531259e+01 1.982684e+00) (-1.704023e-02 4.691100e-01 -1.664954e-03) (0.000000e+00 0.000000e+00 0.000000e+00)) ((5.524172e+00 -2.172454e+01 1.778104e+02) (-4.325575e-01 7.505871e-06 4.855006e+00) (0.000000e+00 0.000000e+00 0.000000e+00))
0.0001375     	((-2.472984e+00 1.531528e+01 1.969290e+00) (-1.704425e-02 4.689061e-01 -1.601424e-03) (0.000000e+00 0.000000e+00 0.000000e+00)) ((5.381257e+00 -2.158697e+01 1.777709e+02) (-4.318681e-01 -6.117693e-04 4.853051e+00) (0.000000e+00 0.000000e+00 0.000000e+00))
0.00014       	((-2.468224e+00 1.531981e+01 1.958193e+00) (-1.702928e-02 4.686547e-01 -1.535091e-03) (0.000000e+00 0.000000e+00 0.000000e+00)) ((5.259825e+00 -2.147407e+01 1.777666e+02) (-4.310969e-01 -1.239252e-03 4.850419e+00) (0.000000e+00 0.000000e+00 0.000000e+00))
0.0001425     	((-2.466283e+00 1.532634e+01 1.951289e+00) (-1.698761e-02 4.683802e-01 -1.458746e-03) (0.000000e+00 0.000000e+00 0.000000e+00)) ((5.179168e+00 -2.140633e+01 1.778106e+02) (-4.301765e-01 -1.942044e-03 4.847277e+00) (0.000000e+00 0.000000e+00 0.000000e+00))
0.000145      	((-2.468632e+00 1.533418e+01 1.950345e+00) (-1.691196e-02 4.680524e-01 -1.376228e-03) (0.000000e+00 0.000000e+00 0.000000e+00)) ((5.157981e+00 -2.140267e+01 1.779106e+02) (-4.291394e-01 -2.680359e-03 4.843244e+00) (0.000000e+00 0.000000e+00 0.000000e+00))
0.0001475     	((-2.475502e+00 1.534223e+01 1.955021e+00) (-1.682920e-02 4.676980e-01 -1.289892e-03) (0.000000e+00 0.000000e+00 0.000000e+00)) ((5.194019e+00 -2.146016e+01 1.780582e+02) (-4.280192e-01 -3.438442e-03 4.838858e+00) (0.000000e+00 0.000000e+00 0.000000e+00))
0.00015       	((-2.487101e+00 1.534938e+01 1.964309e+00) (-1.671145e-02 4.673153e-01 -1.209807e-03) (0.000000e+00 0.000000e+00 0.000000e+00)) ((5.278367e+00 -2.156913e+01 1.782445e+02) (-4.269129e-01 -4.103856e-03 4.833816e+00) (0.000000e+00 0.000000e+00 0.000000e+00))
0.0001525     	((-2.503833e+00 1.535477e+01 1.978083e+00) (-1.657595e-02 4.668846e-01 -1.148253e-03) (0.000000e+00 0.000000e+00 0.000000e+00)) ((5.410584e+00 -2.172837e+01 1.784650e+02) (-4.259502e-01 -4.569849e-03 4.828101e+00) (0.000000e+00 0.000000e+00 0.000000e+00))
0.000155      	((-2.525474e+00 1.535802e+01 1.995219e+00) (-1.647004e-02 4.664467e-01 -1.114609e-03) (0.000000e+00 0.000000e+00 0.000000e+00)) ((5.579650e+00 -2.192645e+01 1.787140e+02) (-4.252540e-01 -4.771616e-03 4.822604e+00) (0.000000e+00 0.000000e+00 0.000000e+00))
0.0001575     	((-2.551685e+00 1.535976e+01 2.013953e+00) (-1.638213e-02 4.660303e-01 -1.097639e-03) (0.000000e+00 0.000000e+00 0.000000e+00)) ((5.767010e+00 -2.214545e+01 1.789944e+02) (-4.247352e-01 -4.833758e-03 4.817501e+00) (0.000000e+00 0.000000e+00 0.000000e+00))
0.00016       	((-2.582521e+00 1.536054e+01 2.033969e+00) (-1.632883e-02 4.656301e-01 -1.094516e-03) (0.000000e+00 0.000000e+00 0.000000e+00)) ((5.968607e+00 -2.238170e+01 1.793124e+02) (-4.243807e-01 -4.797588e-03 4.812916e+00) (0.000000e+00 0.000000e+00 0.000000e+00))
0.0001625     	((-2.616642e+00 1.536063e+01 2.054756e+00) (-1.632851e-02 4.652901e-01 -1.097693e-03) (0.000000e+00 0.000000e+00 0.000000e+00)) ((6.178846e+00 -2.262866e+01 1.796574e+02) (-4.241404e-01 -4.745922e-03 4.809474e+00) (0.000000e+00 0.000000e+00 0.000000e+00))
0.000165      	((-2.651860e+00 1.536038e+01 2.074999e+00) (-1.637812e-02 4.650196e-01 -1.095891e-03) (0.000000e+00 0.000000e+00 0.000000e+00)) ((6.383881e+00 -2.287084e+01 1.800106e+02) (-4.239051e-01 -4.796156e-03 4.807244e+00) (0.000000e+00 0.000000e+00 0.000000e+00))
0.0001675     	((-2.685833e+00 1.536030e+01 2.093582e+00) (-1.647332e-02 4.648070e-01 -1.085508e-03) (0.000000e+00 0.000000e+00 0.000000e+00)) ((6.571626e+00 -2.309428e+01 1.803535e+02) (-4.236380e-01 -4.982835e-03 4.806067e+00) (0.000000e+00 0.000000e+00 0.000000e+00))
0.00017       	((-2.716420e+00 1.536059e+01 2.109220e+00) (-1.661326e-02 4.646620e-01 -1.056684e-03) (0.000000e+00 0.000000e+00 0.000000e+00)) ((6.728914e+00 -2.328394e+01 1.806664e+02) (-4.232379e-01 -5.399686e-03 4.806036e+00) (0.000000e+00 0.000000e+00 0.000000e+00))
0.0001725     	((-2.742609e+00 1.536127e+01 2.121891e+00) (-1.677799e-02 4.645499e-01 -1.010794e-03) (0.000000e+00 0.000000e+00 0.000000e+00)) ((6.855384e+00 -2.343819e+01 1.809393e+02) (-4.227021e-01 -6.020298e-03 4.806601e+00) (0.000000e+00 0.000000e+00 0.000000e+00))
0.000175      	((-2.763206e+00 1.536232e+01 2.131253e+00) (-1.698070e-02 4.644873e-01 -9.509470e-04) (0.000000e+00 0.000000e+00 0.000000e+00)) ((6.947587e+00 -2.355253e+01 1.811598e+02) (-4.220601e-01 -6.806809e-03 4.808056e+00) (0.000000e+00 0.000000e+00 0.000000e+00))
0.0001775     	((-2.777705e+00 1.536358e+01 2.136645e+00) (-1.717238e-02 4.644606e-01 -8.788872e-04) (0.000000e+00 0.000000e+00 0.000000e+00)) ((6.999101e+00 -2.362014e+01 1.813211e+02) (-4.213194e-01 -7.712880e-03 4.809770e+00) (0.000000e+00 0.000000e+00 0.000000e+00))
0.00018       	((-2.786810e+00 1.536441e+01 2.138703e+00) (-1.735010e-02 4.644252e-01 -8.044560e-04) (0.000000e+00 0.000000e+00 0.000000e+00)) ((7.017047e+00 -2.364803e+01 1.814237e+02) (-4.205557e-01 -8.632061e-03 4.811262e+00) (0.000000e+00 0.000000e+00 0.000000e+00))
0.0001825     	((-2.790712e+00 1.536421e+01 2.137846e+00) (-1.752291e-02 4.643968e-01 -7.386183e-04) (0.000000e+00 0.000000e+00 0.000000e+00)) ((7.006362e+00 -2.364095e+01 1.814637e+02) (-4.198772e-01 -9.448295e-03 4.812773e+00) (0.000000e+00 0.000000e+00 0.000000e+00))
0.000185      	((-2.789682e+00 1.536294e+01 2.134370e+00) (-1.765709e-02 4.643612e-01 -6.856166e-04) (0.000000e+00 0.000000e+00 0.000000e+00)) ((6.970290e+00 -2.360260e+01 1.814430e+02) (-4.193178e-01 -1.010453e-02 4.813823e+00) (0.000000e+00 0.000000e+00 0.000000e+00))
0.0001875     	((-2.784373e+00 1.536088e+01 2.129785e+00) (-1.775611e-02 4.642973e-01 -6.487294e-04) (0.000000e+00 0.000000e+00 0.000000e+00)) ((6.923845e+00 -2.354873e+01 1.813712e+02) (-4.189081e-01 -1.056913e-02 4.814232e+00) (0.000000e+00 0.000000e+00 0.000000e+00))
0.00019       	((-2.775078e+00 1.535876e+01 2.125243e+00) (-1.783630e-02 4.642285e-01 -6.293153e-04) (0.000000e+00 0.000000e+00 0.000000e+00)) ((6.878013e+00 -2.349157e+01 1.812583e+02) (-4.186658e-01 -1.082972e-02 4.814394e+00) (0.000000e+00 0.000000e+00 0.000000e+00))
0.0001925     	((-2.762315e+00 1.535783e+01 2.120695e+00) (-1.786547e-02 4.641537e-01 -6.222352e-04) (0.000000e+00 0.000000e+00 0.000000e+00)) ((6.831179e+00 -2.343164e+01 1.811219e+02) (-4.185386e-01 -1.092727e-02 4.813973e+00) (0.000000e+00 0.000000e+00 0.000000e+00))
0.000195      	((-2.747987e+00 1.535846e+01 2.117604e+00) (-1.785761e-02 4.640411e-01 -6.366464e-04) (0.000000e+00 0.000000e+00 0.000000e+00)) ((6.797849e+00 -2.338540e+01 1.809848e+02) (-4.186090e-01 -1.078089e-02 4.812794e+00) (0.000000e+00 0.000000e+00 0.000000e+00))
0.0001975     	((-2.734290e+00 1.536069e+01 2.117455e+00) (-1.782320e-02 4.638994e-01 -6.723778e-04) (0.000000e+00 0.000000e+00 0.000000e+00)) ((6.793037e+00 -2.337011e+01 1.808697e+02) (-4.188671e-01 -1.038989e-02 4.811044e+00) (0.000000e+00 0.000000e+00 0.000000e+00))
0.0002        	((-2.722576e+00 1.536406e+01 2.119836e+00) (-1.777152e-02 4.637374e-01 -7.188966e-04) (0.000000e+00 0.000000e+00 0.000000e+00)) ((6.813137e+00 -2.338324e+01 1.807857e+02) (-4.192089e-01 -9.881985e-03 4.808909e+00) (0.000000e+00 0.000000e+00 0.000000e+00))
0.0002025     	((-2.714547e+00 1.536792e+01 2.125519e+00) (-1.771477e-02 4.635362e-01 -7.720992e-04) (0.000000e+00 0.000000e+00 0.000000e+00)) ((6.866429e+00 -2.343392e+01 1.807434e+02) (-4.195931e-01 -9.312595e-03 4.806327e+00) (0.000000e+00 0.000000e+00 0.000000e+00))
0.000205      	((-2.710512e+00 1.537143e+01 2.134424e+00) (-1.768470e-02 4.633486e-01 -8.378603e-04) (0.000000e+00 0.000000e+00 0.000000e+00)) ((6.952816e+00 -2.352172e+01 1.807377e+02) (-4.201197e-01 -8.640153e-03 4.804147e+00) (0.000000e+00 0.000000e+00 0.000000e+00))
0.0002075     	((-2.710063e+00 1.537468e+01 2.145912e+00) (-1.766054e-02 4.631773e-01 -9.023574e-04) (0.000000e+00 0.000000e+00 0.000000e+00)) ((7.065655e+00 -2.363971e+01 1.807652e+02) (-4.206572e-01 -7.997356e-03 4.802187e+00) (0.000000e+00 0.000000e+00 0.000000e+00))
0.00021       	((-2.712507e+00 1.537769e+01 2.158869e+00) (-1.765626e-02 4.630235e-01 -9.589526e-04) (0.000000e+00 0.000000e+00 0.000000e+00)) ((7.193553e+00 -2.377580e+01 1.808193e+02) (-4.211448e-01 -7.455042e-03 4.800602e+00) (0.000000e+00 0.000000e+00 0.000000e+00))
0.0002125     	((-2.716950e+00 1.538004e+01 2.171949e+00) (-1.766380e-02 4.629054e-01 -1.001577e-03) (0.000000e+00 0.000000e+00 0.000000e+00)) ((7.323323e+00 -2.391549e+01 1.808866e+02) (-4.215228e-01 -7.068291e-03 4.799493e+00) (0.000000e+00 0.000000e+00 0.000000e+00))
0.000215      	((-2.722889e+00 1.538105e+01 2.184522e+00) (-1.767984e-02 4.627834e-01 -1.025746e-03) (0.000000e+00 0.000000e+00 0.000000e+00)) ((7.449149e+00 -2.405151e+01 1.809557e+02) (-4.217219e-01 -6.881140e-03 4.798432e+00) (0.000000e+00 0.000000e+00 0.000000e+00))
0.0002175     	((-2.729104e+00 1.538051e+01 2.195596e+00) (-1.771837e-02 4.626814e-01 -1.030072e-03) (0.000000e+00 0.000000e+00 0.000000e+00)) ((7.561182e+00 -2.417269e+01 1.810120e+02) (-4.217277e-01 -6.907261e-03 4.797800e+00) (0.000000e+00 0.000000e+00 0.000000e+00))
0.00022       	((-2.734943e+00 1.537831e+01 2.205083e+00) (-1.775589e-02 4.625777e-01 -1.015276e-03) (0.000000e+00 0.000000e+00 0.000000e+00)) ((7.658588e+00 -2.427727e+01 1.810480e+02) (-4.215391e-01 -7.128620e-03 4.797142e+00) (0.000000e+00 0.000000e+00 0.000000e+00))
0.0002225     	((-2.739764e+00 1.537470e+01 2.212719e+00) (-1.779557e-02 4.624770e-01 -9.800495e-04) (0.000000e+00 0.000000e+00 0.000000e+00)) ((7.738554e+00 -2.436203e+01 1.810595e+02) (-4.211406e-01 -7.552725e-03 4.796538e+00) (0.000000e+00 0.000000e+00 0.000000e+00))
0.000225      	((-2.743675e+00 1.536997e+01 2.218966e+00) (-1.782340e-02 4.623549e-01 -9.297979e-04) (0.000000e+00 0.000000e+00 0.000000e+00)) ((7.805494e+00 -2.443142e+01 1.810507e+02) (-4.205755e-01 -8.118308e-03 4.795599e+00) (0.000000e+00 0.000000e+00 0.000000e+00))
0.0002275     	((-2.746081e+00 1.536467e+01 2.223180e+00) (-1.785350e-02 4.622372e-01 -8.673091e-04) (0.000000e+00 0.000000e+00 0.000000e+00)) ((7.852497e+00 -2.447870e+01 1.810210e+02) (-4.198771e-01 -8.797975e-03 4.794726e+00) (0.000000e+00 0.000000e+00 0.000000e+00))
0.00023       	((-2.747197e+00 1.535914e+01 2.225435e+00) (-1.786480e-02 4.620974e-01 -8.035732e-04) (0.000000e+00 0.000000e+00 0.000000e+00)) ((7.879916e+00 -2.450463e+01 1.809760e+02) (-4.191506e-01 -9.476318e-03 4.793443e+00) (0.000000e+00 0.000000e+00 0.000000e+00))
0.0002325     	((-2.746749e+00 1.535372e+01 2.225229e+00) (-1.787676e-02 4.619628e-01 -7.376143e-04) (0.000000e+00 0.000000e+00 0.000000e+00)) ((7.882375e+00 -2.450430e+01 1.809162e+02) (-4.183949e-01 -1.016571e-02 4.792214e+00) (0.000000e+00 0.000000e+00 0.000000e+00))
0.000235      	((-2.745370e+00 1.534819e+01 2.223210e+00) (-1.786523e-02 4.618103e-01 -6.711125e-04) (0.000000e+00 0.000000e+00 0.000000e+00)) ((7.866644e+00 -2.448467e+01 1.808459e+02) (-4.176204e-01 -1.084242e-02 4.790570e+00) (0.000000e+00 0.000000e+00 0.000000e+00))
0.0002375     	((-2.743041e+00 1.534247e+01 2.219501e+00) (-1.785358e-02 4.616629e-01 -6.013940e-04) (0.000000e+00 0.000000e+00 0.000000e+00)) ((7.834283e+00 -2.444737e+01 1.807641e+02) (-4.168048e-01 -1.154079e-02 4.788971e+00) (0.000000e+00 0.000000e+00 0.000000e+00))
0.00024       	((-2.740616e+00 1.533645e+01 2.215370e+00) (-1.781963e-02 4.614951e-01 -5.300288e-04) (0.000000e+00 0.000000e+00 0.000000e+00)) ((7.798195e+00 -2.440573e+01 1.806782e+02) (-4.159565e-01 -1.224027e-02 4.786942e+00) (0.000000e+00 0.000000e+00 0.000000e+00))
0.0002425     	((-2.738218e+00 1.533039e+01 2.211206e+00) (-1.779429e-02 4.613274e-01 -4.570134e-04) (0.000000e+00 0.000000e+00 0.000000e+00)) ((7.762068e+00 -2.436407e+01 1.805922e+02) (-4.150792e-01 -1.295154e-02 4.784999e+00) (0.000000e+00 0.000000e+00 0.000000e+00))
0.000245      	((-2.736405e+00 1.532445e+01 2.207484e+00) (-1.775438e-02 4.611505e-01 -3.824204e-04) (0.000000e+00 0.000000e+00 0.000000e+00)) ((7.730423e+00 -2.432759e+01 1.805132e+02) (-4.141715e-01 -1.367024e-02 4.782817e+00) (0.000000e+00 0.000000e+00 0.000000e+00))
0.0002475     	((-2.735360e+00 1.531889e+01 2.204075e+00) (-1.771704e-02 4.609687e-01 -3.048357e-04) (0.000000e+00 0.000000e+00 0.000000e+00)) ((7.701723e+00 -2.429531e+01 1.804457e+02) (-4.132206e-01 -1.441729e-02 4.780611e+00) (0.000000e+00 0.000000e+00 0.000000e+00))
0.00025       	((-2.735495e+00 1.531377e+01 2.201071e+00) (-1.767601e-02 4.607741e-01 -2.257486e-04) (0.000000e+00 0.000000e+00 0.000000e+00)) ((7.676752e+00 -2.426831e+01 1.803947e+02) (-4.122390e-01 -1.517799e-02 4.778242e+00) (0.000000e+00 0.000000e+00 0.000000e+00))
0.0002525     	((-2.736298e+00 1.530929e+01 2.197701e+00) (-1.764004e-02 4.605913e-01 -1.412174e-04) (0.000000e+00 0.000000e+00 0.000000e+00)) ((7.647623e+00 -2.423859e+01 1.803567e+02) (-4.111955e-01 -1.599493e-02 4.776043e+00) (0.000000e+00 0.000000e+00 0.000000e+00))
0.000255      	((-2.737965e+00 1.530533e+01 2.194331e+00) (-1.759511e-02 4.603924e-01 -5.541816e-05) (0.000000e+00 0.000000e+00 0.000000e+00)) ((7.618053e+00 -2.420956e+01 1.803329e+02) (-4.101253e-01 -1.682268e-02 4.773596e+00) (0.000000e+00 0.000000e+00 0.000000e+00))
0.0002575     	((-2.739889e+00 1.530184e+01 2.190739e+00) (-1.757158e-02 4.602019e-01 3.077200e-05) (0.000000e+00 0.000000e+00 0.000000e+00)) ((7.585813e+00 -2.417848e+01 1.803164e+02) (-4.090474e-01 -1.766113e-02 4.771450e+00) (0.000000e+00 0.000000e+00 0.000000e+00))
0.00026       	((-2.741521e+00 1.529879e+01 2.186314e+00) (-1.754190e-02 4.600351e-01 1.222704e-04) (0.000000e+00 0.000000e+00 0.000000e+00)) ((7.544779e+00 -2.413877e+01 1.803015e+02) (-4.079223e-01 -1.855391e-02 4.769481e+00) (0.000000e+00 0.000000e+00 0.000000e+00))
0.0002625     	((-2.743053e+00 1.529613e+01 2.181399e+00) (-1.751129e-02 4.598633e-01 2.143599e-04) (0.000000e+00 0.000000e+00 0.000000e+00)) ((7.498484e+00 -2.409367e+01 1.802895e+02) (-4.067920e-01 -1.945641e-02 4.767455e+00) (0.000000e+00 0.000000e+00 0.000000e+00))
0.000265      	((-2.744171e+00 1.529370e+01 2.175829e+00) (-1.750077e-02 4.597058e-01 3.033728e-04) (0.000000e+00 0.000000e+00 0.000000e+00)) ((7.445371e+00 -2.404125e+01 1.802759e+02) (-4.056978e-01 -2.033671e-02 4.765776e+00) (0.000000e+00 0.000000e+00 0.000000e+00))
0.0002675     	((-2.744498e+00 1.529155e+01 2.169218e+00) (-1.748871e-02 4.595700e-01 3.911727e-04) (0.000000e+00 0.000000e+00 0.000000e+00)) ((7.381525e+00 -2.397746e+01 1.802573e+02) (-4.046230e-01 -2.120693e-02 4.764300e+00) (0.000000e+00 0.000000e+00 0.000000e+00))
0.00027       	((-2.744324e+00 1.528957e+01 2.162050e+00) (-1.747267e-02 4.594299e-01 4.748701e-04) (0.000000e+00 0.000000e+00 0.000000e+00)) ((7.311874e+00 -2.390715e+01 1.802354e+02) (-4.035916e-01 -2.203711e-02 4.762743e+00) (0.000000e+00 0.000000e+00 0.000000e+00))
0.0002725     	((-2.743418e+00 1.528770e+01 2.154169e+00) (-1.747377e-02 4.593095e-01 5.497306e-04) (0.000000e+00 0.000000e+00 0.000000e+00)) ((7.234936e+00 -2.382871e+01 1.802073e+02) (-4.026597e-01 -2.278539e-02 4.761556e+00) (0.000000e+00 0.000000e+00 0.000000e+00))
0.000275      	((-2.741758e+00 1.528590e+01 2.145560e+00) (-1.746693e-02 4.592039e-01 6.172331e-04) (0.000000e+00 0.000000e+00 0.000000e+00)) ((7.150651e+00 -2.374202e+01 1.801724e+02) (-4.018129e-01 -2.345905e-02 4.760439e+00) (0.000000e+00 0.000000e+00 0.000000e+00))