# Forces      
# CofR        : (0.000000e+00 0.000000e+00 0.000000e+00)
# Time        forces(pressure viscous porous)	moments(pressure viscous porous)
2.5e-06       	((6.916551e-01 2.898583e+01 9.232679e-02) (5.901670e-04 6.959665e-01 -7.660917e-03) (0.000000e+00 0.000000e+00 0.000000e+00)) ((-2.409209e+01 2.952614e-01 2.830148e+02) (-7.394193e-01 7.399895e-02 6.939404e+00) (0.000000e+00 0.000000e+00 0.000000e+00))
5e-06         	((-1.599909e+00 1.317624e+02 -5.012949e+00) (5.365066e-03 9.446556e-01 -1.378395e-02) (0.000000e+00 0.000000e+00 0.000000e+00)) ((-1.633603e+02 5.042279e+01 1.333661e+03) (-9.607121e-01 1.403492e-01 9.374889e+00) (0.000000e+00 0.000000e+00 0.000000e+00))
7.5e-06       	((-1.218492e+01 2.357023e+02 -1.626850e+01) (2.320530e-02 9.656581e-01 -1.712782e-02) (0.000000e+00 0.000000e+00 0.000000e+00)) ((-3.712444e+02 1.532511e+02 2.479677e+03) (-9.403910e-01 1.886390e-01 9.408588e+00) (0.000000e+00 0.000000e+00 0.000000e+00))
1e-05         	((-5.320536e+00 9.699288e+01 -3.043688e+01) (2.859490e-02 8.482225e-01 -1.621248e-02) (0.000000e+00 0.000000e+00 0.000000e+00)) ((-4.055100e+02 3.027547e+02 1.027277e+03) (-8.244671e-01 1.826571e-01 8.178326e+00) (0.000000e+00 0.000000e+00 0.000000e+00))
1.25e-05      	((1.261740e+01 3.751288e+01 -7.096599e+00) (6.927489e-02 1.682621e+00 3.670915e-01) (0.000000e+00 0.000000e+00 0.000000e+00)) ((-1.022433e+02 8.402226e+01 2.493396e+02) (2.601947e+00 -3.620492e+00 1.606890e+01) (0.000000e+00 0.000000e+00 0.000000e+00))
1.5e-05       	((3.023795e+01 3.419664e+02 1.065114e+02) (9.402786e-02 2.282035e+00 5.179188e-01) (0.000000e+00 0.000000e+00 0.000000e+00)) ((8.942071e+02 -1.040417e+03 3.099918e+03) (3.816194e+00 -5.111773e+00 2.178804e+01) (0.000000e+00 0.000000e+00 0.000000e+00))
1.75e-05      	((5.045052e+00 2.730571e+02 7.208575e+01) (1.445626e-02 -1.411336e+00 -1.312124e+00) (0.000000e+00 0.000000e+00 0.000000e+00)) ((5.731587e+02 -7.151661e+02 2.669100e+03) (-1.277724e+01 1.308049e+01 -1.419528e+01) (0.000000e+00 0.000000e+00 0.000000e+00))
2e-05         	((-3.757052e+00 6.338959e+01 2.317227e+00) (-4.920665e-02 -2.468416e+00 -1.300779e+00) (0.000000e+00 0.000000e+00 0.000000e+00)) ((-2.748045e+01 -2.642735e+01 6.703956e+02) (-1.207827e+01 1.293412e+01 -2.407900e+01) (0.000000e+00 0.000000e+00 0.000000e+00))
2.25e-05      	((-7.194911e+00 -1.815877e+02 -6.594287e+01) (-4.937764e-02 -1.183801e+00 -7.164214e-01) (0.000000e+00 0.000000e+00 0.000000e+00)) ((-5.867870e+02 6.516806e+02 -1.733404e+03) (-6.824132e+00 7.109999e+00 -1.127775e+01) (0.000000e+00 0.000000e+00 0.000000e+00))
2.5e-05       	((-1.098171e+00 -1.294091e+02 -4.814023e+01) (-6.615377e-02 8.543517e-01 7.359926e-03) (0.000000e+00 0.000000e+00 0.000000e+00)) ((-4.271899e+02 4.791125e+02 -1.276146e+03) (-5.706939e-01 -1.073012e-01 9.193925e+00) (0.000000e+00 0.000000e+00 0.000000e+00))
2.75e-05      	((1.144270e+01 -3.709934e+01 -1.422238e+01) (3.105774e-02 2.220780e+00 3.748894e-01) (0.000000e+00 0.000000e+00 0.000000e+00)) ((-1.265019e+02 1.487129e+02 -4.844269e+02) (2.472832e+00 -3.723343e+00 2.180713e+01) (0.000000e+00 0.000000e+00 0.000000e+00))
3e-05         	((1.220965e+01 2.404223e+02 6.085752e+01) (8.588119e-02 1.293639e+00 1.338889e-01) (0.000000e+00 0.000000e+00 0.000000e+00)) ((4.898272e+02 -5.972322e+02 2.268977e+03) (5.127653e-01 -1.289444e+00 1.202979e+01) (0.000000e+00 0.000000e+00 0.000000e+00))
3.25e-05      	((-4.283142e+00 2.865227e+02 6.450631e+01) (3.006142e-02 8.931573e-01 1.303798e-01) (0.000000e+00 0.000000e+00 0.000000e+00)) ((4.992053e+02 -6.425647e+02 2.895006e+03) (6.857841e-01 -1.285231e+00 8.607507e+00) (0.000000e+00 0.000000e+00 0.000000e+00))
3.5e-05       	((-1.343287e+01 1.545020e+02 2.538608e+01) (5.645680e-02 5.969520e-01 4.990872e-02) (0.000000e+00 0.000000e+00 0.000000e+00)) ((1.691043e+02 -2.594468e+02 1.675128e+03) (2.275614e-02 -4.713511e-01 5.389358e+00) (0.000000e+00 0.000000e+00 0.000000e+00))
3.75e-05      	((-1.337304e+01 4.679349e+01 -4.024024e+00) (-1.870911e-02 -2.128097e-01 -2.733560e-01) (0.000000e+00 0.000000e+00 0.000000e+00)) ((-7.315668e+01 3.283713e+01 6.029203e+02) (-2.817203e+00 2.705400e+00 -1.906909e+00) (0.000000e+00 0.000000e+00 0.000000e+00))
4e-05         	((-1.291994e+01 -1.020918e+02 -4.527836e+01) (-5.115167e-02 -4.481019e-02 -1.854792e-01) (0.000000e+00 0.000000e+00 0.000000e+00)) ((-4.119325e+02 4.438820e+02 -8.845941e+02) (-2.023529e+00 1.813524e+00 8.918202e-02) (0.000000e+00 0.000000e+00 0.000000e+00))
4.25e-05      	((4.263223e+00 -6.886828e+01 -2.692101e+01) (-1.009867e-02 5.598443e-01 5.872073e-02) (0.000000e+00 0.000000e+00 0.000000e+00)) ((-2.423300e+02 2.699836e+02 -7.286436e+02) (1.294590e-01 -5.968421e-01 5.689639e+00) (0.000000e+00 0.000000e+00 0.000000e+00))
4.5e-05       	((1.310236e+01 -7.219917e+00 -3.906449e+00) (5.243748e-02 1.389415e+00 3.352340e-01) (0.000000e+00 0.000000e+00 0.000000e+00)) ((-4.096760e+01 4.559691e+01 -2.043827e+02) (2.486993e+00 -3.315223e+00 1.331726e+01) (0.000000e+00 0.000000e+00 0.000000e+00))
4.75e-05      	((2.961170e+00 1.306503e+02 4.042080e+01) (5.151929e-02 1.384456e+00 2.833961e-01) (0.000000e+00 0.000000e+00 0.000000e+00)) ((3.344665e+02 -4.008601e+02 1.271166e+03) (1.973541e+00 -2.795758e+00 1.328110e+01) (0.000000e+00 0.000000e+00 0.000000e+00))
5e-05         	((-1.257718e+01 1.407278e+02 4.005777e+01) (-8.800923e-03 8.044003e-01 9.167682e-02) (0.000000e+00 0.000000e+00 0.000000e+00)) ((3.248037e+02 -4.053627e+02 1.529185e+03) (3.502848e-01 -9.188182e-01 8.114626e+00) (0.000000e+00 0.000000e+00 0.000000e+00))
5.25e-05      	((-2.066655e+01 7.535947e+01 1.809591e+01) (-4.801099e-02 4.411556e-01 -2.120523e-02) (0.000000e+00 0.000000e+00 0.000000e+00)) ((1.369854e+02 -1.912962e+02 9.609549e+02) (-5.999698e-01 1.853273e-01 4.891391e+00) (0.000000e+00 0.000000e+00 0.000000e+00))
5.5e-05       	((-2.199844e+01 2.049781e+01 9.927249e-01) (-7.959807e-02 -1.407231e-02 -1.562735e-01) (0.000000e+00 0.000000e+00 0.000000e+00)) ((-7.017329e+00 -2.181059e+01 4.283682e+02) (-1.725615e+00 1.513004e+00 6.810620e-01) (0.000000e+00 0.000000e+00 0.000000e+00))
5.75e-05      	((-1.086095e+01 -1.885467e+01 -1.132011e+01) (-4.536612e-02 2.615139e-01 -8.349974e-02) (0.000000e+00 0.000000e+00 0.000000e+00)) ((-1.105517e+02 1.068718e+02 -7.703936e+01) (-1.136594e+00 8.055898e-01 3.078496e+00) (0.000000e+00 0.000000e+00 0.000000e+00))
6e-05         	((6.032101e-01 -6.856516e+00 -7.096729e+00) (-1.289482e-02 6.123277e-01 -1.104513e-02) (0.000000e+00 0.000000e+00 0.000000e+00)) ((-7.386030e+01 7.095246e+01 -7.428066e+01) (-5.906600e-01 9.968499e-02 6.242511e+00) (0.000000e+00 0.000000e+00 0.000000e+00))
6.25e-05      	((6.240674e+00 9.045995e+00 -1.442837e+00) (-2.262144e-02 8.868137e-01 1.085643e-01) (0.000000e+00 0.000000e+00 0.000000e+00)) ((-2.488338e+01 1.758472e+01 2.714155e+01) (4.714708e-01 -1.097785e+00 9.075139e+00) (0.000000e+00 0.000000e+00 0.000000e+00))
6.5e-05       	((3.360800e-01 2.939339e+01 4.473342e+00) (-2.000942e-03 7.940598e-01 5.874057e-02) (0.000000e+00 0.000000e+00 0.000000e+00)) ((2.383742e+01 -4.454756e+01 2.899352e+02) (2.078758e-02 -5.887299e-01 7.941499e+00) (0.000000e+00 0.000000e+00 0.000000e+00))
6.75e-05      	((-5.649125e+00 4.083311e+01 6.662164e+00) (-1.438796e-03 7.295537e-01 4.402257e-02) (0.000000e+00 0.000000e+00 0.000000e+00)) ((3.957615e+01 -6.949767e+01 4.647712e+02) (-9.299645e-02 -4.416279e-01 7.293025e+00) (0.000000e+00 0.000000e+00 0.000000e+00))
7e-05         	((-8.148874e+00 3.395116e+01 4.055286e+00) (-8.723891e-03 6.816994e-01 2.834896e-02) (0.000000e+00 0.000000e+00 0.000000e+00)) ((1.669994e+01 -4.481976e+01 4.215886e+02) (-2.261933e-01 -2.896731e-01 6.890680e+00) (0.000000e+00 0.000000e+00 0.000000e+00))
7.25e-05      	((-6.763106e+00 2.708032e+01 2.509731e+00) (-6.511006e-03 6.398942e-01 1.404905e-02) (0.000000e+00 0.000000e+00 0.000000e+00)) ((4.761203e+00 -2.864529e+01 3.389168e+02) (-3.477862e-01 -1.466361e-01 6.452388e+00) (0.000000e+00 0.000000e+00 0.000000e+00))
7.5e-05       	((-4.812058e+00 2.067179e+01 1.235950e+00) (1.095922e-04 5.652536e-01 -1.142205e-02) (0.000000e+00 0.000000e+00 0.000000e+00)) ((-4.563759e+00 -1.486726e+01 2.550455e+02) (-5.646387e-01 1.101275e-01 5.642535e+00) (0.000000e+00 0.000000e+00 0.000000e+00))
7.75e-05      	((-2.111559e+00 1.788830e+01 7.865960e-01) (-4.730138e-03 5.825092e-01 -9.619264e-03) (0.000000e+00 0.000000e+00 0.000000e+00)) ((-7.503411e+00 -8.916794e+00 1.997808e+02) (-5.550417e-01 8.878426e-02 5.862513e+00) (0.000000e+00 0.000000e+00 0.000000e+00))
8e-05         	((-1.080505e+00 1.903406e+01 1.439381e+00) (-1.035774e-02 6.016143e-01 -5.817043e-03) (0.000000e+00 0.000000e+00 0.000000e+00)) ((-1.555360e+00 -1.484442e+01 2.008006e+02) (-5.278390e-01 4.747758e-02 6.109542e+00) (0.000000e+00 0.000000e+00 0.000000e+00))
8.25e-05      	((-7.125461e-01 2.008717e+01 1.935641e+00) (-1.211484e-02 6.192666e-01 -1.763185e-03) (0.000000e+00 0.000000e+00 0.000000e+00)) ((2.793204e+00 -1.953069e+01 2.077729e+02) (-4.965190e-01 5.930833e-03 6.303338e+00) (0.000000e+00 0.000000e+00 0.000000e+00))
8.5e-05       	((-1.233073e+00 2.329910e+01 2.693861e+00) (-9.643039e-03 6.265428e-01 -9.474464e-04) (0.000000e+00 0.000000e+00 0.000000e+00)) ((8.573845e+00 -2.729857e+01 2.452040e+02) (-4.923504e-01 -8.337316e-04 6.351562e+00) (0.000000e+00 0.000000e+00 0.000000e+00))
8.75e-05      	((-1.930634e+00 2.379253e+01 2.627385e+00) (-8.934946e-03 6.041538e-01 -5.073385e-03) (0.000000e+00 0.000000e+00 0.000000e+00)) ((7.493206e+00 -2.695571e+01 2.573101e+02) (-5.225730e-01 4.073055e-02 6.121718e+00) (0.000000e+00 0.000000e+00 0.000000e+00))
9e-05         	((-2.352668e+00 2.265837e+01 2.250697e+00) (-7.879326e-03 5.963293e-01 -8.791526e-03) (0.000000e+00 0.000000e+00 0.000000e+00)) ((4.197242e+00 -2.341562e+01 2.503574e+02) (-5.563026e-01 7.844473e-02 6.033253e+00) (0.000000e+00 0.000000e+00 0.000000e+00))
9.25e-05      	((-2.259676e+00 2.179629e+01 2.158919e+00) (-6.017480e-03 5.645024e-01 -9.826729e-03) (0.000000e+00 0.000000e+00 0.000000e+00)) ((3.693255e+00 -2.246379e+01 2.408242e+02) (-5.499604e-01 8.975121e-02 5.697547e+00) (0.000000e+00 0.000000e+00 0.000000e+00))
9.5e-05       	((-1.700318e+00 2.039527e+01 2.115437e+00) (-7.013981e-03 5.607479e-01 -9.748764e-03) (0.000000e+00 0.000000e+00 0.000000e+00)) ((4.018130e+00 -2.174564e+01 2.211597e+02) (-5.474272e-01 8.844342e-02 5.670205e+00) (0.000000e+00 0.000000e+00 0.000000e+00))
9.75e-05      	((-1.240563e+00 2.014535e+01 2.280129e+00) (-6.765519e-03 5.800601e-01 -1.038438e-02) (0.000000e+00 0.000000e+00 0.000000e+00)) ((5.836867e+00 -2.316357e+01 2.139889e+02) (-5.643816e-01 9.492123e-02 5.860132e+00) (0.000000e+00 0.000000e+00 0.000000e+00))
0.0001        	((-1.121499e+00 2.086114e+01 2.542987e+00) (-6.642921e-03 5.910812e-01 -9.186776e-03) (0.000000e+00 0.000000e+00 0.000000e+00)) ((8.103594e+00 -2.573211e+01 2.199460e+02) (-5.584195e-01 8.304870e-02 5.968815e+00) (0.000000e+00 0.000000e+00 0.000000e+00))
0.0001025     	((-1.173684e+00 2.131671e+01 2.627202e+00) (-6.870850e-03 5.912413e-01 -8.814370e-03) (0.000000e+00 0.000000e+00 0.000000e+00)) ((8.671825e+00 -2.659695e+01 2.250810e+02) (-5.550513e-01 7.924974e-02 5.972950e+00) (0.000000e+00 0.000000e+00 0.000000e+00))
0.000105      	((-1.412554e+00 2.159716e+01 2.619630e+00) (-6.643251e-03 5.877288e-01 -9.591138e-03) (0.000000e+00 0.000000e+00 0.000000e+00)) ((8.398293e+00 -2.664457e+01 2.303588e+02) (-5.613910e-01 8.710968e-02 5.935915e+00) (0.000000e+00 0.000000e+00 0.000000e+00))
0.0001075     	((-1.657204e+00 2.146541e+01 2.541115e+00) (-6.421932e-03 5.850217e-01 -1.004742e-02) (0.000000e+00 0.000000e+00 0.000000e+00)) ((7.642260e+00 -2.599718e+01 2.315745e+02) (-5.650319e-01 9.176586e-02 5.906900e+00) (0.000000e+00 0.000000e+00 0.000000e+00))
0.00011       	((-1.822685e+00 2.123818e+01 2.486936e+00) (-6.589770e-03 5.823782e-01 -1.005200e-02) (0.000000e+00 0.000000e+00 0.000000e+00)) ((7.208234e+00 -2.556375e+01 2.310186e+02) (-5.640992e-01 9.168338e-02 5.882398e+00) (0.000000e+00 0.000000e+00 0.000000e+00))
0.0001125     	((-1.833186e+00 2.105660e+01 2.483286e+00) (-6.767351e-03 5.801227e-01 -1.022091e-02) (0.000000e+00 0.000000e+00 0.000000e+00)) ((7.284275e+00 -2.555915e+01 2.293281e+02) (-5.650130e-01 9.321960e-02 5.861818e+00) (0.000000e+00 0.000000e+00 0.000000e+00))
0.000115      	((-1.740399e+00 2.097077e+01 2.499176e+00) (-7.153582e-03 5.787451e-01 -1.058581e-02) (0.000000e+00 0.000000e+00 0.000000e+00)) ((7.516655e+00 -2.569199e+01 2.275271e+02) (-5.683199e-01 9.656289e-02 5.852027e+00) (0.000000e+00 0.000000e+00 0.000000e+00))
0.0001175     	((-1.613598e+00 2.092969e+01 2.496135e+00) (-7.484767e-03 5.781933e-01 -1.061328e-02) (0.000000e+00 0.000000e+00 0.000000e+00)) ((7.532998e+00 -2.561084e+01 2.258149e+02) (-5.686833e-01 9.656525e-02 5.849852e+00) (0.000000e+00 0.000000e+00 0.000000e+00))
0.00012       	((-1.487527e+00 2.086011e+01 2.452357e+00) (-7.550249e-03 5.773942e-01 -1.026426e-02) (0.000000e+00 0.000000e+00 0.000000e+00)) ((7.145365e+00 -2.511725e+01 2.238193e+02) (-5.650958e-01 9.296375e-02 5.842478e+00) (0.000000e+00 0.000000e+00 0.000000e+00))
0.0001225     	((-1.379984e+00 2.075975e+01 2.376197e+00) (-7.379041e-03 5.765310e-01 -1.004735e-02) (0.000000e+00 0.000000e+00 0.000000e+00)) ((6.439172e+00 -2.430725e+01 2.217027e+02) (-5.627790e-01 9.080842e-02 5.832056e+00) (0.000000e+00 0.000000e+00 0.000000e+00))
0.000125      	((-1.285414e+00 2.064992e+01 2.289701e+00) (-7.169240e-03 5.755736e-01 -9.978044e-03) (0.000000e+00 0.000000e+00 0.000000e+00)) ((5.629991e+00 -2.339911e+01 2.196245e+02) (-5.619390e-01 9.016828e-02 5.820322e+00) (0.000000e+00 0.000000e+00 0.000000e+00))
0.0001275     	((-1.191818e+00 2.055215e+01 2.216621e+00) (-6.931511e-03 5.745786e-01 -9.975165e-03) (0.000000e+00 0.000000e+00 0.000000e+00)) ((4.951402e+00 -2.262121e+01 2.176806e+02) (-5.617140e-01 9.022397e-02 5.807941e+00) (0.000000e+00 0.000000e+00 0.000000e+00))
0.00013       	((-1.095171e+00 2.047508e+01 2.167118e+00) (-6.738581e-03 5.736266e-01 -9.961215e-03) (0.000000e+00 0.000000e+00 0.000000e+00)) ((4.504493e+00 -2.206893e+01 2.159195e+02) (-5.613033e-01 9.015029e-02 5.796443e+00) (0.000000e+00 0.000000e+00 0.000000e+00))
0.0001325     	((-1.001935e+00 2.041526e+01 2.139011e+00) (-6.535137e-03 5.729575e-01 -1.003732e-02) (0.000000e+00 0.000000e+00 0.000000e+00)) ((4.266748e+00 -2.172313e+01 2.143727e+02) (-5.619434e-01 9.102905e-02 5.787692e+00) (0.000000e+00 0.000000e+00 0.000000e+00))
0.000135      	((-9.189566e-01 2.036387e+01 2.125679e+00) (-6.384195e-03 5.723853e-01 -1.003540e-02) (0.000000e+00 0.000000e+00 0.000000e+00)) ((4.171568e+00 -2.152223e+01 2.130208e+02) (-5.617675e-01 9.111930e-02 5.780463e+00) (0.000000e+00 0.000000e+00 0.000000e+00))
0.0001375     	((-8.514687e-01 2.031617e+01 2.118780e+00) (-6.226688e-03 5.719280e-01 -1.002230e-02) (0.000000e+00 0.000000e+00 0.000000e+00)) ((4.134483e+00 -2.138847e+01 2.118668e+02) (-5.614984e-01 9.113241e-02 5.774356e+00) (0.000000e+00 0.000000e+00 0.000000e+00))
0.00014       	((-7.987012e-01 2.027476e+01 2.115512e+00) (-6.078100e-03 5.714891e-01 -1.004310e-02) (0.000000e+00 0.000000e+00 0.000000e+00)) ((4.124687e+00 -2.129626e+01 2.109266e+02) (-5.615266e-01 9.149856e-02 5.768557e+00) (0.000000e+00 0.000000e+00 0.000000e+00))
0.0001425     	((-7.572460e-01 2.024491e+01 2.118174e+00) (-5.902707e-03 5.711184e-01 -1.011321e-02) (0.000000e+00 0.000000e+00 0.000000e+00)) ((4.163647e+00 -2.126962e+01 2.102162e+02) (-5.620670e-01 9.239112e-02 5.763188e+00) (0.000000e+00 0.000000e+00 0.000000e+00))
0.000145      	((-7.226049e-01 2.022843e+01 2.129995e+00) (-5.744959e-03 5.707614e-01 -1.011887e-02) (0.000000e+00 0.000000e+00 0.000000e+00)) ((4.285221e+00 -2.134001e+01 2.097074e+02) (-5.618879e-01 9.263292e-02 5.758129e+00) (0.000000e+00 0.000000e+00 0.000000e+00))
0.0001475     	((-6.921892e-01 2.022309e+01 2.152313e+00) (-5.567961e-03 5.704698e-01 -1.013073e-02) (0.000000e+00 0.000000e+00 0.000000e+00)) ((4.506114e+00 -2.152117e+01 2.093515e+02) (-5.617849e-01 9.295749e-02 5.753511e+00) (0.000000e+00 0.000000e+00 0.000000e+00))
0.00015       	((-6.636481e-01 2.022417e+01 2.183672e+00) (-5.380391e-03 5.701523e-01 -1.010390e-02) (0.000000e+00 0.000000e+00 0.000000e+00)) ((4.814773e+00 -2.179813e+01 2.090774e+02) (-5.612247e-01 9.289361e-02 5.748496e+00) (0.000000e+00 0.000000e+00 0.000000e+00))
0.0001525     	((-6.362074e-01 2.022773e+01 2.220172e+00) (-5.153068e-03 5.698094e-01 -1.006317e-02) (0.000000e+00 0.000000e+00 0.000000e+00)) ((5.173504e+00 -2.213269e+01 2.088373e+02) (-5.605121e-01 9.271425e-02 5.742806e+00) (0.000000e+00 0.000000e+00 0.000000e+00))
0.000155      	((-6.082498e-01 2.023181e+01 2.257716e+00) (-4.890376e-03 5.693207e-01 -1.001036e-02) (0.000000e+00 0.000000e+00 0.000000e+00)) ((5.541232e+00 -2.248315e+01 2.085951e+02) (-5.595839e-01 9.241806e-02 5.735272e+00) (0.000000e+00 0.000000e+00 0.000000e+00))
0.0001575     	((-5.784680e-01 2.023549e+01 2.292678e+00) (-4.592667e-03 5.687152e-01 -9.982071e-03) (0.000000e+00 0.000000e+00 0.000000e+00)) ((5.881926e+00 -2.281244e+01 2.083275e+02) (-5.588818e-01 9.237493e-02 5.726199e+00) (0.000000e+00 0.000000e+00 0.000000e+00))
0.00016       	((-5.460369e-01 2.023882e+01 2.323539e+00) (-4.294647e-03 5.679787e-01 -9.961298e-03) (0.000000e+00 0.000000e+00 0.000000e+00)) ((6.180499e+00 -2.310407e+01 2.080275e+02) (-5.582091e-01 9.237741e-02 5.715790e+00) (0.000000e+00 0.000000e+00 0.000000e+00))
0.0001625     	((-5.116266e-01 2.024192e+01 2.350098e+00) (-3.984887e-03 5.671931e-01 -9.979802e-03) (0.000000e+00 0.000000e+00 0.000000e+00)) ((6.435141e+00 -2.335578e+01 2.077039e+02) (-5.579675e-01 9.276271e-02 5.704757e+00) (0.000000e+00 0.000000e+00 0.000000e+00))
0.000165      	((-4.763597e-01 2.024542e+01 2.373091e+00) (-3.693193e-03 5.663634e-01 -1.001425e-02) (0.000000e+00 0.000000e+00 0.000000e+00)) ((6.652587e+00 -2.357445e+01 2.073753e+02) (-5.578896e-01 9.327151e-02 5.693445e+00) (0.000000e+00 0.000000e+00 0.000000e+00))
0.0001675     	((-4.438931e-01 2.024885e+01 2.393148e+00) (-3.384489e-03 5.655488e-01 -1.007355e-02) (0.000000e+00 0.000000e+00 0.000000e+00)) ((6.839211e+00 -2.376789e+01 2.070746e+02) (-5.581285e-01 9.403146e-02 5.682103e+00) (0.000000e+00 0.000000e+00 0.000000e+00))
0.00017       	((-4.172657e-01 2.025203e+01 2.410160e+00) (-3.097953e-03 5.647268e-01 -1.013104e-02) (0.000000e+00 0.000000e+00 0.000000e+00)) ((6.993808e+00 -2.393586e+01 2.068313e+02) (-5.583695e-01 9.474527e-02 5.670902e+00) (0.000000e+00 0.000000e+00 0.000000e+00))
0.0001725     	((-3.988065e-01 2.025400e+01 2.423902e+00) (-2.835238e-03 5.639540e-01 -1.019692e-02) (0.000000e+00 0.000000e+00 0.000000e+00)) ((7.115175e+00 -2.407676e+01 2.066592e+02) (-5.587736e-01 9.553053e-02 5.660441e+00) (0.000000e+00 0.000000e+00 0.000000e+00))
0.000175      	((-3.891597e-01 2.025438e+01 2.434034e+00) (-2.630281e-03 5.631950e-01 -1.024045e-02) (0.000000e+00 0.000000e+00 0.000000e+00)) ((7.200707e+00 -2.418630e+01 2.065613e+02) (-5.589742e-01 9.605403e-02 5.650710e+00) (0.000000e+00 0.000000e+00 0.000000e+00))
0.0001775     	((-3.899074e-01 2.025292e+01 2.440367e+00) (-2.480507e-03 5.625116e-01 -1.027572e-02) (0.000000e+00 0.000000e+00 0.000000e+00)) ((7.249517e+00 -2.426263e+01 2.065515e+02) (-5.591717e-01 9.647151e-02 5.642310e+00) (0.000000e+00 0.000000e+00 0.000000e+00))
0.00018       	((-4.013797e-01 2.025008e+01 2.443145e+00) (-2.412287e-03 5.618683e-01 -1.028909e-02) (0.000000e+00 0.000000e+00 0.000000e+00)) ((7.264426e+00 -2.430727e+01 2.066386e+02) (-5.591653e-01 9.662231e-02 5.635151e+00) (0.000000e+00 0.000000e+00 0.000000e+00))
0.0001825     	((-4.234573e-01 2.024664e+01 2.442873e+00) (-2.398952e-03 5.613383e-01 -1.028348e-02) (0.000000e+00 0.000000e+00 0.000000e+00)) ((7.250443e+00 -2.432463e+01 2.068293e+02) (-5.590458e-01 9.656367e-02 5.629702e+00) (0.000000e+00 0.000000e+00 0.000000e+00))
0.000185      	((-4.546198e-01 2.024320e+01 2.440478e+00) (-2.454353e-03 5.608770e-01 -1.024826e-02) (0.000000e+00 0.000000e+00 0.000000e+00)) ((7.216669e+00 -2.432258e+01 2.071150e+02) (-5.586379e-01 9.616958e-02 5.625644e+00) (0.000000e+00 0.000000e+00 0.000000e+00))
0.0001875     	((-4.928152e-01 2.024033e+01 2.436685e+00) (-2.551991e-03 5.605380e-01 -1.020280e-02) (0.000000e+00 0.000000e+00 0.000000e+00)) ((7.170092e+00 -2.430745e+01 2.074804e+02) (-5.581934e-01 9.565968e-02 5.623253e+00) (0.000000e+00 0.000000e+00 0.000000e+00))
0.00019       	((-5.349062e-01 2.023868e+01 2.432180e+00) (-2.694486e-03 5.602632e-01 -1.013044e-02) (0.000000e+00 0.000000e+00 0.000000e+00)) ((7.116868e+00 -2.428457e+01 2.078999e+02) (-5.574797e-01 9.485581e-02 5.621964e+00) (0.000000e+00 0.000000e+00 0.000000e+00))
0.0001925     	((-5.778026e-01 2.023830e+01 2.427552e+00) (-2.851672e-03 5.600886e-01 -1.005084e-02) (0.000000e+00 0.000000e+00 0.000000e+00)) ((7.062749e+00 -2.425904e+01 2.083417e+02) (-5.567493e-01 9.398140e-02 5.621836e+00) (0.000000e+00 0.000000e+00 0.000000e+00))
0.000195      	((-6.179719e-01 2.023927e+01 2.423400e+00) (-3.031008e-03 5.599414e-01 -9.962920e-03) (0.000000e+00 0.000000e+00 0.000000e+00)) ((7.013499e+00 -2.423563e+01 2.087696e+02) (-5.559242e-01 9.300849e-02 5.622207e+00) (0.000000e+00 0.000000e+00 0.000000e+00))
0.0001975     	((-6.531473e-01 2.024145e+01 2.420021e+00) (-3.201781e-03 5.598685e-01 -9.883559e-03) (0.000000e+00 0.000000e+00 0.000000e+00)) ((6.972089e+00 -2.421728e+01 2.091583e+02) (-5.552402e-01 9.213307e-02 5.623239e+00) (0.000000e+00 0.000000e+00 0.000000e+00))
0.0002        	((-6.809274e-01 2.024461e+01 2.417508e+00) (-3.375385e-03 5.598000e-01 -9.812647e-03) (0.000000e+00 0.000000e+00 0.000000e+00)) ((6.939457e+00 -2.420438e+01 2.094801e+02) (-5.546295e-01 9.133303e-02 5.624337e+00) (0.000000e+00 0.000000e+00 0.000000e+00))
0.0002025     	((-6.997197e-01 2.024810e+01 2.415995e+00) (-3.525291e-03 5.597649e-01 -9.765637e-03) (0.000000e+00 0.000000e+00 0.000000e+00)) ((6.917298e+00 -2.419817e+01 2.097117e+02) (-5.542961e-01 9.078665e-02 5.625527e+00) (0.000000e+00 0.000000e+00 0.000000e+00))
0.000205      	((-7.082148e-01 2.025113e+01 2.415899e+00) (-3.644111e-03 5.596853e-01 -9.722029e-03) (0.000000e+00 0.000000e+00 0.000000e+00)) ((6.910184e+00 -2.420234e+01 2.098316e+02) (-5.539590e-01 9.028226e-02 5.625950e+00) (0.000000e+00 0.000000e+00 0.000000e+00))
0.0002075     	((-7.067902e-01 2.025333e+01 2.416888e+00) (-3.723314e-03 5.596215e-01 -9.692512e-03) (0.000000e+00 0.000000e+00 0.000000e+00)) ((6.914850e+00 -2.421411e+01 2.098396e+02) (-5.537884e-01 8.993949e-02 5.626124e+00) (0.000000e+00 0.000000e+00 0.000000e+00))
0.00021       	((-6.962462e-01 2.025511e+01 2.418367e+00) (-3.781558e-03 5.595132e-01 -9.661834e-03) (0.000000e+00 0.000000e+00 0.000000e+00)) ((6.924856e+00 -2.422773e+01 2.097480e+02) (-5.535616e-01 8.958418e-02 5.625628e+00) (0.000000e+00 0.000000e+00 0.000000e+00))
0.0002125     	((-6.782408e-01 2.025698e+01 2.419682e+00) (-3.799891e-03 5.594281e-01 -9.635168e-03) (0.000000e+00 0.000000e+00 0.000000e+00)) ((6.933131e+00 -2.423743e+01 2.095792e+02) (-5.534003e-01 8.929005e-02 5.624951e+00) (0.000000e+00 0.000000e+00 0.000000e+00))
0.000215      	((-6.540154e-01 2.025892e+01 2.420893e+00) (-3.795719e-03 5.592806e-01 -9.597785e-03) (0.000000e+00 0.000000e+00 0.000000e+00)) ((6.940233e+00 -2.424369e+01 2.093464e+02) (-5.530732e-01 8.889193e-02 5.623413e+00) (0.000000e+00 0.000000e+00 0.000000e+00))
0.0002175     	((-6.261896e-01 2.026044e+01 2.421959e+00) (-3.748814e-03 5.591236e-01 -9.568090e-03) (0.000000e+00 0.000000e+00 0.000000e+00)) ((6.946194e+00 -2.424697e+01 2.090721e+02) (-5.528284e-01 8.859720e-02 5.621347e+00) (0.000000e+00 0.000000e+00 0.000000e+00))
0.00022       	((-5.977913e-01 2.026156e+01 2.422605e+00) (-3.689913e-03 5.589275e-01 -9.538238e-03) (0.000000e+00 0.000000e+00 0.000000e+00)) ((6.948172e+00 -2.424541e+01 2.087885e+02) (-5.525429e-01 8.830267e-02 5.618765e+00) (0.000000e+00 0.000000e+00 0.000000e+00))
0.0002225     	((-5.720216e-01 2.026271e+01 2.422410e+00) (-3.620458e-03 5.587578e-01 -9.524773e-03) (0.000000e+00 0.000000e+00 0.000000e+00)) ((6.941727e+00 -2.423612e+01 2.085328e+02) (-5.524496e-01 8.818486e-02 5.616342e+00) (0.000000e+00 0.000000e+00 0.000000e+00))
0.000225      	((-5.508763e-01 2.026437e+01 2.421276e+00) (-3.569748e-03 5.585665e-01 -9.518787e-03) (0.000000e+00 0.000000e+00 0.000000e+00)) ((6.925651e+00 -2.421849e+01 2.083311e+02) (-5.523976e-01 8.812963e-02 5.613895e+00) (0.000000e+00 0.000000e+00 0.000000e+00))
0.0002275     	((-5.359589e-01 2.026675e+01 2.419661e+00) (-3.518762e-03 5.584090e-01 -9.521408e-03) (0.000000e+00 0.000000e+00 0.000000e+00)) ((6.904597e+00 -2.419761e+01 2.082021e+02) (-5.524588e-01 8.817141e-02 5.611796e+00) (0.000000e+00 0.000000e+00 0.000000e+00))
0.00023       	((-5.277905e-01 2.026988e+01 2.417924e+00) (-3.484596e-03 5.582334e-01 -9.525022e-03) (0.000000e+00 0.000000e+00 0.000000e+00)) ((6.882281e+00 -2.417698e+01 2.081517e+02) (-5.524915e-01 8.821498e-02 5.609694e+00) (0.000000e+00 0.000000e+00 0.000000e+00))
0.0002325     	((-5.265077e-01 2.027398e+01 2.416091e+00) (-3.461936e-03 5.581101e-01 -9.540138e-03) (0.000000e+00 0.000000e+00 0.000000e+00)) ((6.858893e+00 -2.415720e+01 2.081831e+02) (-5.526695e-01 8.837645e-02 5.608243e+00) (0.000000e+00 0.000000e+00 0.000000e+00))
0.000235      	((-5.311261e-01 2.027934e+01 2.414379e+00) (-3.464252e-03 5.579900e-01 -9.547775e-03) (0.000000e+00 0.000000e+00 0.000000e+00)) ((6.836376e+00 -2.414014e+01 2.082890e+02) (-5.527443e-01 8.844999e-02 5.607083e+00) (0.000000e+00 0.000000e+00 0.000000e+00))
0.0002375     	((-5.402111e-01 2.028580e+01 2.413001e+00) (-3.476191e-03 5.579204e-01 -9.554136e-03) (0.000000e+00 0.000000e+00 0.000000e+00)) ((6.816988e+00 -2.412770e+01 2.084526e+02) (-5.528358e-01 8.851312e-02 5.606533e+00) (0.000000e+00 0.000000e+00 0.000000e+00))
0.00024       	((-5.514128e-01 2.029291e+01 2.412309e+00) (-3.506466e-03 5.578334e-01 -9.551069e-03) (0.000000e+00 0.000000e+00 0.000000e+00)) ((6.804496e+00 -2.412246e+01 2.086448e+02) (-5.527937e-01 8.846931e-02 5.605995e+00) (0.000000e+00 0.000000e+00 0.000000e+00))
0.0002425     	((-5.627149e-01 2.030009e+01 2.412612e+00) (-3.531112e-03 5.577761e-01 -9.539986e-03) (0.000000e+00 0.000000e+00 0.000000e+00)) ((6.802335e+00 -2.412709e+01 2.088384e+02) (-5.526937e-01 8.835445e-02 5.605702e+00) (0.000000e+00 0.000000e+00 0.000000e+00))
0.000245      	((-5.720001e-01 2.030701e+01 2.413916e+00) (-3.562366e-03 5.576908e-01 -9.516289e-03) (0.000000e+00 0.000000e+00 0.000000e+00)) ((6.810607e+00 -2.414100e+01 2.090080e+02) (-5.524282e-01 8.810523e-02 5.605190e+00) (0.000000e+00 0.000000e+00 0.000000e+00))
0.0002475     	((-5.775346e-01 2.031333e+01 2.416062e+00) (-3.584838e-03 5.576267e-01 -9.485621e-03) (0.000000e+00 0.000000e+00 0.000000e+00)) ((6.827821e+00 -2.416231e+01 2.091319e+02) (-5.521127e-01 8.779375e-02 5.604799e+00) (0.000000e+00 0.000000e+00 0.000000e+00))
0.00025       	((-5.778670e-01 2.031880e+01 2.419039e+00) (-3.601593e-03 5.575368e-01 -9.437840e-03) (0.000000e+00 0.000000e+00 0.000000e+00)) ((6.853816e+00 -2.419042e+01 2.091924e+02) (-5.515900e-01 8.730871e-02 5.604082e+00) (0.000000e+00 0.000000e+00 0.000000e+00))
0.0002525     	((-5.725425e-01 2.032305e+01 2.422654e+00) (-3.598381e-03 5.574670e-01 -9.382149e-03) (0.000000e+00 0.000000e+00 0.000000e+00)) ((6.886793e+00 -2.422347e+01 2.091809e+02) (-5.510073e-01 8.675640e-02 5.603358e+00) (0.000000e+00 0.000000e+00 0.000000e+00))
0.000255      	((-5.616543e-01 2.032589e+01 2.426558e+00) (-3.584694e-03 5.573685e-01 -9.315993e-03) (0.000000e+00 0.000000e+00 0.000000e+00)) ((6.923220e+00 -2.425786e+01 2.090969e+02) (-5.502804e-01 8.609718e-02 5.602230e+00) (0.000000e+00 0.000000e+00 0.000000e+00))
0.0002575     	((-5.463036e-01 2.032727e+01 2.430325e+00) (-3.547764e-03 5.573034e-01 -9.241523e-03) (0.000000e+00 0.000000e+00 0.000000e+00)) ((6.958755e+00 -2.428994e+01 2.089511e+02) (-5.494982e-01 8.536949e-02 5.601195e+00) (0.000000e+00 0.000000e+00 0.000000e+00))
0.00026       	((-5.278591e-01 2.032734e+01 2.433497e+00) (-3.500514e-03 5.572200e-01 -9.161243e-03) (0.000000e+00 0.000000e+00 0.000000e+00)) ((6.988582e+00 -2.431546e+01 2.087594e+02) (-5.486276e-01 8.458309e-02 5.599865e+00) (0.000000e+00 0.000000e+00 0.000000e+00))
0.0002625     	((-5.082400e-01 2.032632e+01 2.435524e+00) (-3.439903e-03 5.571725e-01 -9.089680e-03) (0.000000e+00 0.000000e+00 0.000000e+00)) ((7.007031e+00 -2.432964e+01 2.085442e+02) (-5.478761e-01 8.389182e-02 5.598754e+00) (0.000000e+00 0.000000e+00 0.000000e+00))
0.000265      	((-4.892163e-01 2.032457e+01 2.436235e+00) (-3.377899e-03 5.571148e-01 -9.022301e-03) (0.000000e+00 0.000000e+00 0.000000e+00)) ((7.012193e+00 -2.433116e+01 2.083276e+02) (-5.471477e-01 8.323867e-02 5.597524e+00) (0.000000e+00 0.000000e+00 0.000000e+00))
0.0002675     	((-4.727488e-01 2.032234e+01 2.435517e+00) (-3.310706e-03 5.570915e-01 -8.969406e-03) (0.000000e+00 0.000000e+00 0.000000e+00)) ((7.002919e+00 -2.431950e+01 2.081329e+02) (-5.466025e-01 8.273774e-02 5.596590e+00) (0.000000e+00 0.000000e+00 0.000000e+00))
0.00027       	((-4.604207e-01 2.032009e+01 2.433336e+00) (-3.256462e-03 5.570605e-01 -8.935392e-03) (0.000000e+00 0.000000e+00 0.000000e+00)) ((6.978777e+00 -2.429461e+01 2.079812e+02) (-5.462320e-01 8.241676e-02 5.595711e+00) (0.000000e+00 0.000000e+00 0.000000e+00))
0.0002725     	((-4.538616e-01 2.031833e+01 2.429850e+00) (-3.210265e-03 5.570764e-01 -8.920926e-03) (0.000000e+00 0.000000e+00 0.000000e+00)) ((6.941263e+00 -2.425870e+01 2.078947e+02) (-5.461034e-01 8.229314e-02 5.595392e+00) (0.000000e+00 0.000000e+00 0.000000e+00))
0.000275      	((-4.538960e-01 2.031753e+01 2.425322e+00) (-3.192113e-03 5.570906e-01 -8.921610e-03) (0.000000e+00 0.000000e+00 0.000000e+00)) ((6.892917e+00 -2.421441e+01 2.078868e+02) (-5.461136e-01 8.230554e-02 5.595347e+00) (0.000000e+00 0.000000e+00 0.000000e+00))