# Forces      
# CofR        : (0.000000e+00 0.000000e+00 0.000000e+00)
# Time        forces(pressure viscous porous)	moments(pressure viscous porous)
2.5e-06       	((7.287322e-01 1.151699e+01 3.632810e-01) (1.129807e-03 3.753809e-01 3.319668e-03) (0.000000e+00 0.000000e+00 0.000000e+00)) ((-6.982680e+00 -2.874652e+00 1.076658e+02) (-3.183775e-01 -3.330880e-02 3.729660e+00) (0.000000e+00 0.000000e+00 0.000000e+00))
5e-06         	((1.618623e+00 4.882431e+01 -3.780687e-01) (5.447797e-03 4.976279e-01 -1.336457e-03) (0.000000e+00 0.000000e+00 0.000000e+00)) ((-4.775649e+01 5.096119e+00 4.707781e+02) (-4.307535e-01 1.703607e-02 4.906634e+00) (0.000000e+00 0.000000e+00 0.000000e+00))
7.5e-06       	((-1.402826e+00 9.598208e+01 5.264923e+00) (1.083959e-02 4.665069e-01 -4.424220e-03) (0.000000e+00 0.000000e+00 0.000000e+00)) ((-3.945009e+01 -5.444156e+01 9.711860e+02) (-4.249004e-01 5.242169e-02 4.542058e+00) (0.000000e+00 0.000000e+00 0.000000e+00))
1e-05         	((9.815881e-01 6.586200e+01 -3.403297e-01) (1.266983e-02 4.013509e-01 -2.479503e-02) (0.000000e+00 0.000000e+00 0.000000e+00)) ((-6.182100e+01 4.157905e+00 6.470290e+02) (-5.640837e-01 2.554964e-01 3.874418e+00) (0.000000e+00 0.000000e+00 0.000000e+00))
1.25e-05      	((3.146809e+00 2.003502e+01 -5.244448e+00) (2.538382e-02 4.093769e-01 -3.335567e-03) (0.000000e+00 0.000000e+00 0.000000e+00)) ((-6.470310e+01 5.558791e+01 1.685025e+02) (-3.644683e-01 5.501356e-02 3.827881e+00) (0.000000e+00 0.000000e+00 0.000000e+00))
1.5e-05       	((1.707890e+00 4.950992e+00 -3.325614e+00) (1.844115e-02 3.637374e-01 -1.402903e-03) (0.000000e+00 0.000000e+00 0.000000e+00)) ((-3.283029e+01 3.509244e+01 3.249719e+01) (-3.092032e-01 2.948274e-02 3.443138e+00) (0.000000e+00 0.000000e+00 0.000000e+00))
1.75e-05      	((-1.432249e-01 9.079713e+00 9.756312e-01) (7.966818e-03 3.383526e-01 1.159404e-04) (0.000000e+00 0.000000e+00 0.000000e+00)) ((3.211242e+00 -9.682259e+00 9.217367e+01) (-2.762942e-01 4.080538e-03 3.294735e+00) (0.000000e+00 0.000000e+00 0.000000e+00))
2e-05         	((-5.552072e-01 1.483840e+01 2.823541e+00) (4.788634e-03 3.270655e-01 1.092919e-03) (0.000000e+00 0.000000e+00 0.000000e+00)) ((1.440151e+01 -2.855010e+01 1.536904e+02) (-2.588952e-01 -8.692725e-03 3.214614e+00) (0.000000e+00 0.000000e+00 0.000000e+00))
2.25e-05      	((-2.073931e-01 1.477843e+01 1.793115e+00) (1.816233e-03 3.127941e-01 -2.784978e-03) (0.000000e+00 0.000000e+00 0.000000e+00)) ((4.008438e+00 -1.791404e+01 1.496411e+02) (-2.833622e-01 2.711180e-02 3.102551e+00) (0.000000e+00 0.000000e+00 0.000000e+00))
2.5e-05       	((-5.224619e-02 1.035532e+01 -2.683492e-01) (1.137216e-03 3.033305e-01 -6.073583e-03) (0.000000e+00 0.000000e+00 0.000000e+00)) ((-1.164524e+01 2.823754e+00 1.040668e+02) (-3.054109e-01 5.926379e-02 3.015125e+00) (0.000000e+00 0.000000e+00 0.000000e+00))
2.75e-05      	((-1.158295e-01 6.956969e+00 -1.265649e+00) (3.419898e-03 2.979229e-01 -6.729748e-03) (0.000000e+00 0.000000e+00 0.000000e+00)) ((-1.774386e+01 1.271764e+01 7.086583e+01) (-3.053528e-01 6.801173e-02 2.938481e+00) (0.000000e+00 0.000000e+00 0.000000e+00))
3e-05         	((-1.849312e-01 7.069832e+00 -6.400100e-01) (4.027948e-03 2.914366e-01 -5.471031e-03) (0.000000e+00 0.000000e+00 0.000000e+00)) ((-1.154183e+01 6.401858e+00 7.265590e+01) (-2.858658e-01 5.606102e-02 2.867706e+00) (0.000000e+00 0.000000e+00 0.000000e+00))
3.25e-05      	((-1.249365e-01 9.187183e+00 6.454727e-01) (4.550602e-03 2.901937e-01 -2.915003e-03) (0.000000e+00 0.000000e+00 0.000000e+00)) ((-1.073398e+00 -6.372059e+00 9.309830e+01) (-2.596148e-01 3.111499e-02 2.849936e+00) (0.000000e+00 0.000000e+00 0.000000e+00))
3.5e-05       	((-1.022104e-02 1.060510e+01 1.399054e+00) (4.948899e-03 2.910010e-01 -8.929375e-04) (0.000000e+00 0.000000e+00 0.000000e+00)) ((4.735709e+00 -1.378165e+01 1.060365e+02) (-2.412341e-01 1.133261e-02 2.853866e+00) (0.000000e+00 0.000000e+00 0.000000e+00))
3.75e-05      	((3.854257e-02 1.021637e+01 1.252959e+00) (4.762196e-03 2.892121e-01 -4.793267e-04) (0.000000e+00 0.000000e+00 0.000000e+00)) ((3.513937e+00 -1.227587e+01 1.016692e+02) (-2.362891e-01 6.966017e-03 2.837843e+00) (0.000000e+00 0.000000e+00 0.000000e+00))
4e-05         	((-9.034724e-03 8.892953e+00 6.736367e-01) (4.527796e-03 2.849102e-01 -1.247016e-03) (0.000000e+00 0.000000e+00 0.000000e+00)) ((-9.375075e-01 -6.537146e+00 8.897878e+01) (-2.404308e-01 1.429934e-02 2.797301e+00) (0.000000e+00 0.000000e+00 0.000000e+00))
4.25e-05      	((-9.227310e-02 8.004887e+00 3.023598e-01) (4.428501e-03 2.794792e-01 -2.463227e-03) (0.000000e+00 0.000000e+00 0.000000e+00)) ((-3.679249e+00 -2.901824e+00 8.098360e+01) (-2.477652e-01 2.626295e-02 2.744154e+00) (0.000000e+00 0.000000e+00 0.000000e+00))
4.5e-05       	((-1.416021e-01 8.088153e+00 3.740663e-01) (4.474337e-03 2.753060e-01 -3.294863e-03) (0.000000e+00 0.000000e+00 0.000000e+00)) ((-2.995408e+00 -3.648168e+00 8.230988e+01) (-2.524441e-01 3.457526e-02 2.702078e+00) (0.000000e+00 0.000000e+00 0.000000e+00))
4.75e-05      	((-1.401331e-01 8.706766e+00 6.862674e-01) (4.533935e-03 2.736443e-01 -3.306730e-03) (0.000000e+00 0.000000e+00 0.000000e+00)) ((-5.066527e-01 -6.747752e+00 8.844473e+01) (-2.513942e-01 3.475566e-02 2.684867e+00) (0.000000e+00 0.000000e+00 0.000000e+00))
5e-05         	((-1.189346e-01 9.156109e+00 9.380946e-01) (4.519621e-03 2.736516e-01 -2.842523e-03) (0.000000e+00 0.000000e+00 0.000000e+00)) ((1.507131e+00 -9.235103e+00 9.269022e+01) (-2.472904e-01 3.011263e-02 2.685022e+00) (0.000000e+00 0.000000e+00 0.000000e+00))
5.25e-05      	((-1.030057e-01 9.157546e+00 1.004937e+00) (4.414592e-03 2.738367e-01 -2.415080e-03) (0.000000e+00 0.000000e+00 0.000000e+00)) ((2.118743e+00 -9.891781e+00 9.253116e+01) (-2.436594e-01 2.571953e-02 2.687873e+00) (0.000000e+00 0.000000e+00 0.000000e+00))
5.5e-05       	((-1.050973e-01 8.848292e+00 9.432494e-01) (4.232697e-03 2.734524e-01 -2.287097e-03) (0.000000e+00 0.000000e+00 0.000000e+00)) ((1.775059e+00 -9.288817e+00 8.946334e+01) (-2.424838e-01 2.422951e-02 2.685832e+00) (0.000000e+00 0.000000e+00 0.000000e+00))
5.75e-05      	((-1.132761e-01 8.539646e+00 8.702402e-01) (4.018674e-03 2.724313e-01 -2.432139e-03) (0.000000e+00 0.000000e+00 0.000000e+00)) ((1.335024e+00 -8.577662e+00 8.646680e+01) (-2.434157e-01 2.544053e-02 2.677772e+00) (0.000000e+00 0.000000e+00 0.000000e+00))
6e-05         	((-1.176952e-01 8.411453e+00 8.567352e-01) (3.830601e-03 2.711917e-01 -2.670944e-03) (0.000000e+00 0.000000e+00 0.000000e+00)) ((1.320223e+00 -8.452336e+00 8.523097e+01) (-2.450041e-01 2.762486e-02 2.667297e+00) (0.000000e+00 0.000000e+00 0.000000e+00))
6.25e-05      	((-1.125124e-01 8.444567e+00 8.933688e-01) (3.686405e-03 2.701092e-01 -2.917559e-03) (0.000000e+00 0.000000e+00 0.000000e+00)) ((1.647762e+00 -8.813552e+00 8.550523e+01) (-2.467970e-01 2.994684e-02 2.657964e+00) (0.000000e+00 0.000000e+00 0.000000e+00))
6.5e-05       	((-9.732447e-02 8.547440e+00 9.463199e-01) (3.530607e-03 2.693263e-01 -3.081221e-03) (0.000000e+00 0.000000e+00 0.000000e+00)) ((2.066646e+00 -9.325442e+00 8.637321e+01) (-2.480033e-01 3.144915e-02 2.651728e+00) (0.000000e+00 0.000000e+00 0.000000e+00))
6.75e-05      	((-7.631030e-02 8.620756e+00 9.891753e-01) (3.391681e-03 2.687371e-01 -3.174248e-03) (0.000000e+00 0.000000e+00 0.000000e+00)) ((2.411603e+00 -9.730759e+00 8.688826e+01) (-2.486419e-01 3.227326e-02 2.647255e+00) (0.000000e+00 0.000000e+00 0.000000e+00))
7e-05         	((-5.362392e-02 8.624572e+00 1.015738e+00) (3.265196e-03 2.681740e-01 -3.238286e-03) (0.000000e+00 0.000000e+00 0.000000e+00)) ((2.661734e+00 -9.972613e+00 8.669547e+01) (-2.489694e-01 3.282618e-02 2.642929e+00) (0.000000e+00 0.000000e+00 0.000000e+00))
7.25e-05      	((-3.283680e-02 8.579736e+00 1.033100e+00) (3.168454e-03 2.674791e-01 -3.305600e-03) (0.000000e+00 0.000000e+00 0.000000e+00)) ((2.867989e+00 -1.012446e+01 8.603927e+01) (-2.491589e-01 3.343945e-02 2.637000e+00) (0.000000e+00 0.000000e+00 0.000000e+00))
7.5e-05       	((-1.505379e-02 8.529393e+00 1.049756e+00) (3.064345e-03 2.669222e-01 -3.488539e-03) (0.000000e+00 0.000000e+00 0.000000e+00)) ((3.072786e+00 -1.027117e+01 8.536070e+01) (-2.506834e-01 3.518313e-02 2.632494e+00) (0.000000e+00 0.000000e+00 0.000000e+00))
7.75e-05      	((2.156233e-03 8.503036e+00 1.068510e+00) (2.959760e-03 2.663111e-01 -3.710790e-03) (0.000000e+00 0.000000e+00 0.000000e+00)) ((3.275439e+00 -1.043733e+01 8.492939e+01) (-2.525332e-01 3.731956e-02 2.627463e+00) (0.000000e+00 0.000000e+00 0.000000e+00))
8e-05         	((2.028629e-02 8.504973e+00 1.090774e+00) (2.857908e-03 2.657526e-01 -3.950495e-03) (0.000000e+00 0.000000e+00 0.000000e+00)) ((3.486507e+00 -1.063673e+01 8.477226e+01) (-2.546000e-01 3.963044e-02 2.622938e+00) (0.000000e+00 0.000000e+00 0.000000e+00))
8.25e-05      	((3.905444e-02 8.521716e+00 1.116045e+00) (2.771523e-03 2.653119e-01 -4.184718e-03) (0.000000e+00 0.000000e+00 0.000000e+00)) ((3.714734e+00 -1.086573e+01 8.475682e+01) (-2.567356e-01 4.190794e-02 2.619450e+00) (0.000000e+00 0.000000e+00 0.000000e+00))
8.5e-05       	((5.964323e-02 8.538448e+00 1.142255e+00) (2.746981e-03 2.649456e-01 -4.419703e-03) (0.000000e+00 0.000000e+00 0.000000e+00)) ((3.954396e+00 -1.110392e+01 8.472238e+01) (-2.589638e-01 4.422705e-02 2.616089e+00) (0.000000e+00 0.000000e+00 0.000000e+00))
8.75e-05      	((8.237831e-02 8.548535e+00 1.166720e+00) (2.709174e-03 2.645798e-01 -4.599962e-03) (0.000000e+00 0.000000e+00 0.000000e+00)) ((4.184917e+00 -1.132451e+01 8.459899e+01) (-2.606576e-01 4.600156e-02 2.612879e+00) (0.000000e+00 0.000000e+00 0.000000e+00))
9e-05         	((1.077502e-01 8.552934e+00 1.186757e+00) (2.635981e-03 2.643424e-01 -4.728488e-03) (0.000000e+00 0.000000e+00 0.000000e+00)) ((4.377550e+00 -1.150001e+01 8.439094e+01) (-2.618990e-01 4.725705e-02 2.611302e+00) (0.000000e+00 0.000000e+00 0.000000e+00))
9.25e-05      	((1.354208e-01 8.555113e+00 1.200781e+00) (2.589803e-03 2.641139e-01 -4.854844e-03) (0.000000e+00 0.000000e+00 0.000000e+00)) ((4.511972e+00 -1.161438e+01 8.413638e+01) (-2.631389e-01 4.849636e-02 2.609543e+00) (0.000000e+00 0.000000e+00 0.000000e+00))
9.5e-05       	((1.655646e-01 8.557562e+00 1.209417e+00) (2.573449e-03 2.639369e-01 -4.986705e-03) (0.000000e+00 0.000000e+00 0.000000e+00)) ((4.591593e+00 -1.167357e+01 8.385851e+01) (-2.644812e-01 4.980075e-02 2.607992e+00) (0.000000e+00 0.000000e+00 0.000000e+00))
9.75e-05      	((1.972733e-01 8.560188e+00 1.213896e+00) (2.570934e-03 2.637963e-01 -5.103772e-03) (0.000000e+00 0.000000e+00 0.000000e+00)) ((4.628626e+00 -1.169037e+01 8.356593e+01) (-2.657089e-01 5.096094e-02 2.606665e+00) (0.000000e+00 0.000000e+00 0.000000e+00))
0.0001        	((2.301085e-01 8.562149e+00 1.215563e+00) (2.596801e-03 2.637050e-01 -5.217643e-03) (0.000000e+00 0.000000e+00 0.000000e+00)) ((4.637379e+00 -1.167854e+01 8.325491e+01) (-2.669432e-01 5.210394e-02 2.605540e+00) (0.000000e+00 0.000000e+00 0.000000e+00))
0.0001025     	((2.625302e-01 8.562901e+00 1.215213e+00) (2.630864e-03 2.636342e-01 -5.311009e-03) (0.000000e+00 0.000000e+00 0.000000e+00)) ((4.626390e+00 -1.164705e+01 8.293589e+01) (-2.679835e-01 5.304849e-02 2.604539e+00) (0.000000e+00 0.000000e+00 0.000000e+00))
0.000105      	((2.932901e-01 8.562838e+00 1.213241e+00) (2.676878e-03 2.635792e-01 -5.384623e-03) (0.000000e+00 0.000000e+00 0.000000e+00)) ((4.599554e+00 -1.160081e+01 8.262562e+01) (-2.688272e-01 5.380634e-02 2.603571e+00) (0.000000e+00 0.000000e+00 0.000000e+00))
0.0001075     	((3.215072e-01 8.562665e+00 1.209934e+00) (2.733090e-03 2.635284e-01 -5.446888e-03) (0.000000e+00 0.000000e+00 0.000000e+00)) ((4.559436e+00 -1.154335e+01 8.234010e+01) (-2.695484e-01 5.446260e-02 2.602541e+00) (0.000000e+00 0.000000e+00 0.000000e+00))
0.00011       	((3.466279e-01 8.562603e+00 1.205692e+00) (2.796878e-03 2.634511e-01 -5.500139e-03) (0.000000e+00 0.000000e+00 0.000000e+00)) ((4.510189e+00 -1.147904e+01 8.208711e+01) (-2.701464e-01 5.503965e-02 2.601167e+00) (0.000000e+00 0.000000e+00 0.000000e+00))
0.0001125     	((3.685136e-01 8.562406e+00 1.201317e+00) (2.876148e-03 2.633424e-01 -5.550198e-03) (0.000000e+00 0.000000e+00 0.000000e+00)) ((4.460381e+00 -1.141606e+01 8.186558e+01) (-2.706762e-01 5.560075e-02 2.599318e+00) (0.000000e+00 0.000000e+00 0.000000e+00))
0.000115      	((3.871255e-01 8.561731e+00 1.197474e+00) (2.969064e-03 2.631968e-01 -5.601938e-03) (0.000000e+00 0.000000e+00 0.000000e+00)) ((4.417136e+00 -1.136117e+01 8.167242e+01) (-2.711848e-01 5.619314e-02 2.596956e+00) (0.000000e+00 0.000000e+00 0.000000e+00))
0.0001175     	((4.024357e-01 8.560162e+00 1.194593e+00) (3.070883e-03 2.630131e-01 -5.656448e-03) (0.000000e+00 0.000000e+00 0.000000e+00)) ((4.385106e+00 -1.131886e+01 8.150364e+01) (-2.716834e-01 5.682241e-02 2.594117e+00) (0.000000e+00 0.000000e+00 0.000000e+00))
0.00012       	((4.145153e-01 8.557526e+00 1.192799e+00) (3.171880e-03 2.627982e-01 -5.710956e-03) (0.000000e+00 0.000000e+00 0.000000e+00)) ((4.365548e+00 -1.129045e+01 8.135669e+01) (-2.721527e-01 5.745096e-02 2.590970e+00) (0.000000e+00 0.000000e+00 0.000000e+00))
0.0001225     	((4.234444e-01 8.553870e+00 1.192003e+00) (3.266755e-03 2.625621e-01 -5.762969e-03) (0.000000e+00 0.000000e+00 0.000000e+00)) ((4.357423e+00 -1.127510e+01 8.123108e+01) (-2.725784e-01 5.804776e-02 2.587670e+00) (0.000000e+00 0.000000e+00 0.000000e+00))
0.000125      	((4.294889e-01 8.549692e+00 1.191938e+00) (3.354007e-03 2.623107e-01 -5.809236e-03) (0.000000e+00 0.000000e+00 0.000000e+00)) ((4.357499e+00 -1.126995e+01 8.112902e+01) (-2.729331e-01 5.857855e-02 2.584290e+00) (0.000000e+00 0.000000e+00 0.000000e+00))
0.0001275     	((4.332856e-01 8.545497e+00 1.192306e+00) (3.428444e-03 2.620491e-01 -5.852260e-03) (0.000000e+00 0.000000e+00 0.000000e+00)) ((4.362283e+00 -1.127148e+01 8.104906e+01) (-2.732463e-01 5.906274e-02 2.580936e+00) (0.000000e+00 0.000000e+00 0.000000e+00))
0.00013       	((4.356083e-01 8.541644e+00 1.192949e+00) (3.493313e-03 2.617851e-01 -5.886995e-03) (0.000000e+00 0.000000e+00 0.000000e+00)) ((4.369828e+00 -1.127733e+01 8.098699e+01) (-2.734736e-01 5.945207e-02 2.577653e+00) (0.000000e+00 0.000000e+00 0.000000e+00))
0.0001325     	((4.371218e-01 8.538324e+00 1.193917e+00) (3.548804e-03 2.615272e-01 -5.913623e-03) (0.000000e+00 0.000000e+00 0.000000e+00)) ((4.380438e+00 -1.128723e+01 8.093804e+01) (-2.736228e-01 5.974917e-02 2.574523e+00) (0.000000e+00 0.000000e+00 0.000000e+00))
0.000135      	((4.384288e-01 8.535594e+00 1.195315e+00) (3.593512e-03 2.612762e-01 -5.934262e-03) (0.000000e+00 0.000000e+00 0.000000e+00)) ((4.395106e+00 -1.130150e+01 8.089678e+01) (-2.737156e-01 5.997512e-02 2.571570e+00) (0.000000e+00 0.000000e+00 0.000000e+00))
0.0001375     	((4.394961e-01 8.533171e+00 1.197146e+00) (3.632819e-03 2.610368e-01 -5.947263e-03) (0.000000e+00 0.000000e+00 0.000000e+00)) ((4.414073e+00 -1.132002e+01 8.086083e+01) (-2.737379e-01 6.011927e-02 2.568787e+00) (0.000000e+00 0.000000e+00 0.000000e+00))
0.00014       	((4.402115e-01 8.531128e+00 1.199282e+00) (3.663852e-03 2.608106e-01 -5.953864e-03) (0.000000e+00 0.000000e+00 0.000000e+00)) ((4.435931e+00 -1.134151e+01 8.083222e+01) (-2.737031e-01 6.019314e-02 2.566218e+00) (0.000000e+00 0.000000e+00 0.000000e+00))
0.0001425     	((4.406514e-01 8.529611e+00 1.201421e+00) (3.686476e-03 2.605975e-01 -5.956199e-03) (0.000000e+00 0.000000e+00 0.000000e+00)) ((4.457408e+00 -1.136285e+01 8.081171e+01) (-2.736314e-01 6.021865e-02 2.563864e+00) (0.000000e+00 0.000000e+00 0.000000e+00))
0.000145      	((4.408213e-01 8.528943e+00 1.203428e+00) (3.705259e-03 2.603948e-01 -5.953119e-03) (0.000000e+00 0.000000e+00 0.000000e+00)) ((4.476787e+00 -1.138261e+01 8.080253e+01) (-2.735075e-01 6.018846e-02 2.561653e+00) (0.000000e+00 0.000000e+00 0.000000e+00))
0.0001475     	((4.407769e-01 8.529046e+00 1.205309e+00) (3.722456e-03 2.602020e-01 -5.946559e-03) (0.000000e+00 0.000000e+00 0.000000e+00)) ((4.494204e+00 -1.140090e+01 8.080327e+01) (-2.733511e-01 6.012412e-02 2.559556e+00) (0.000000e+00 0.000000e+00 0.000000e+00))
0.00015       	((4.406901e-01 8.529817e+00 1.207075e+00) (3.735997e-03 2.600208e-01 -5.938918e-03) (0.000000e+00 0.000000e+00 0.000000e+00)) ((4.509876e+00 -1.141774e+01 8.081114e+01) (-2.731881e-01 6.004782e-02 2.557610e+00) (0.000000e+00 0.000000e+00 0.000000e+00))
0.0001525     	((4.407987e-01 8.531078e+00 1.208700e+00) (3.747697e-03 2.598525e-01 -5.928492e-03) (0.000000e+00 0.000000e+00 0.000000e+00)) ((4.523759e+00 -1.143283e+01 8.082186e+01) (-2.730023e-01 5.994471e-02 2.555812e+00) (0.000000e+00 0.000000e+00 0.000000e+00))
0.000155      	((4.413102e-01 8.532675e+00 1.210114e+00) (3.759132e-03 2.596975e-01 -5.915570e-03) (0.000000e+00 0.000000e+00 0.000000e+00)) ((4.535286e+00 -1.144544e+01 8.083175e+01) (-2.727972e-01 5.981891e-02 2.554147e+00) (0.000000e+00 0.000000e+00 0.000000e+00))
0.0001575     	((4.422858e-01 8.534489e+00 1.211265e+00) (3.768836e-03 2.595551e-01 -5.905680e-03) (0.000000e+00 0.000000e+00 0.000000e+00)) ((4.544029e+00 -1.145513e+01 8.083896e+01) (-2.726294e-01 5.972383e-02 2.552626e+00) (0.000000e+00 0.000000e+00 0.000000e+00))
0.00016       	((4.437081e-01 8.536437e+00 1.212184e+00) (3.778896e-03 2.594231e-01 -5.894234e-03) (0.000000e+00 0.000000e+00 0.000000e+00)) ((4.550376e+00 -1.146229e+01 8.084282e+01) (-2.724507e-01 5.961492e-02 2.551204e+00) (0.000000e+00 0.000000e+00 0.000000e+00))
0.0001625     	((4.455237e-01 8.538426e+00 1.212963e+00) (3.789191e-03 2.593011e-01 -5.880933e-03) (0.000000e+00 0.000000e+00 0.000000e+00)) ((4.555340e+00 -1.146790e+01 8.084297e+01) (-2.722574e-01 5.948914e-02 2.549878e+00) (0.000000e+00 0.000000e+00 0.000000e+00))
0.000165      	((4.476934e-01 8.540413e+00 1.213670e+00) (3.800693e-03 2.591874e-01 -5.863181e-03) (0.000000e+00 0.000000e+00 0.000000e+00)) ((4.559633e+00 -1.147264e+01 8.083942e+01) (-2.720217e-01 5.932107e-02 2.548623e+00) (0.000000e+00 0.000000e+00 0.000000e+00))
0.0001675     	((4.501309e-01 8.542404e+00 1.214262e+00) (3.811065e-03 2.590820e-01 -5.844290e-03) (0.000000e+00 0.000000e+00 0.000000e+00)) ((4.562819e+00 -1.147615e+01 8.083317e+01) (-2.717778e-01 5.914140e-02 2.547462e+00) (0.000000e+00 0.000000e+00 0.000000e+00))
0.00017       	((4.527273e-01 8.544382e+00 1.214713e+00) (3.822561e-03 2.589836e-01 -5.820001e-03) (0.000000e+00 0.000000e+00 0.000000e+00)) ((4.564636e+00 -1.147824e+01 8.082520e+01) (-2.714817e-01 5.890918e-02 2.546359e+00) (0.000000e+00 0.000000e+00 0.000000e+00))
0.0001725     	((4.553434e-01 8.546287e+00 1.214984e+00) (3.833971e-03 2.588918e-01 -5.791615e-03) (0.000000e+00 0.000000e+00 0.000000e+00)) ((4.564717e+00 -1.147861e+01 8.081638e+01) (-2.711468e-01 5.863625e-02 2.545323e+00) (0.000000e+00 0.000000e+00 0.000000e+00))
0.000175      	((4.578995e-01 8.548053e+00 1.215025e+00) (3.845163e-03 2.588060e-01 -5.757719e-03) (0.000000e+00 0.000000e+00 0.000000e+00)) ((4.562628e+00 -1.147681e+01 8.080691e+01) (-2.707582e-01 5.830824e-02 2.544350e+00) (0.000000e+00 0.000000e+00 0.000000e+00))
0.0001775     	((4.603574e-01 8.549627e+00 1.214734e+00) (3.853912e-03 2.587277e-01 -5.722893e-03) (0.000000e+00 0.000000e+00 0.000000e+00)) ((4.557380e+00 -1.147178e+01 8.079670e+01) (-2.703636e-01 5.796933e-02 2.543477e+00) (0.000000e+00 0.000000e+00 0.000000e+00))
0.00018       	((4.627878e-01 8.550953e+00 1.214035e+00) (3.862182e-03 2.586561e-01 -5.683722e-03) (0.000000e+00 0.000000e+00 0.000000e+00)) ((4.548292e+00 -1.146270e+01 8.078451e+01) (-2.699280e-01 5.758705e-02 2.542677e+00) (0.000000e+00 0.000000e+00 0.000000e+00))
0.0001825     	((4.652215e-01 8.552003e+00 1.212866e+00) (3.869519e-03 2.585901e-01 -5.642819e-03) (0.000000e+00 0.000000e+00 0.000000e+00)) ((4.534781e+00 -1.144887e+01 8.076976e+01) (-2.694768e-01 5.718733e-02 2.541943e+00) (0.000000e+00 0.000000e+00 0.000000e+00))
0.000185      	((4.676644e-01 8.552773e+00 1.211197e+00) (3.875350e-03 2.585300e-01 -5.601368e-03) (0.000000e+00 0.000000e+00 0.000000e+00)) ((4.516561e+00 -1.142999e+01 8.075233e+01) (-2.690221e-01 5.678160e-02 2.541284e+00) (0.000000e+00 0.000000e+00 0.000000e+00))
0.0001875     	((4.701111e-01 8.553258e+00 1.209047e+00) (3.880826e-03 2.584755e-01 -5.561075e-03) (0.000000e+00 0.000000e+00 0.000000e+00)) ((4.493845e+00 -1.140627e+01 8.073223e+01) (-2.685815e-01 5.638788e-02 2.540687e+00) (0.000000e+00 0.000000e+00 0.000000e+00))
0.00019       	((4.725792e-01 8.553455e+00 1.206477e+00) (3.886544e-03 2.584266e-01 -5.522935e-03) (0.000000e+00 0.000000e+00 0.000000e+00)) ((4.467267e+00 -1.137832e+01 8.070921e+01) (-2.681653e-01 5.601633e-02 2.540144e+00) (0.000000e+00 0.000000e+00 0.000000e+00))
0.0001925     	((4.751038e-01 8.553372e+00 1.203587e+00) (3.893093e-03 2.583829e-01 -5.488124e-03) (0.000000e+00 0.000000e+00 0.000000e+00)) ((4.437848e+00 -1.134713e+01 8.068294e+01) (-2.677851e-01 5.567910e-02 2.539644e+00) (0.000000e+00 0.000000e+00 0.000000e+00))
0.000195      	((4.777162e-01 8.553048e+00 1.200491e+00) (3.900856e-03 2.583439e-01 -5.457113e-03) (0.000000e+00 0.000000e+00 0.000000e+00)) ((4.406691e+00 -1.131382e+01 8.065347e+01) (-2.674458e-01 5.538094e-02 2.539179e+00) (0.000000e+00 0.000000e+00 0.000000e+00))
0.0001975     	((4.803862e-01 8.552526e+00 1.197292e+00) (3.909337e-03 2.583106e-01 -5.429796e-03) (0.000000e+00 0.000000e+00 0.000000e+00)) ((4.374768e+00 -1.127945e+01 8.062148e+01) (-2.671468e-01 5.512069e-02 2.538764e+00) (0.000000e+00 0.000000e+00 0.000000e+00))
0.0002        	((4.831140e-01 8.551860e+00 1.194090e+00) (3.919107e-03 2.582809e-01 -5.406998e-03) (0.000000e+00 0.000000e+00 0.000000e+00)) ((4.343030e+00 -1.124503e+01 8.058748e+01) (-2.668955e-01 5.490634e-02 2.538372e+00) (0.000000e+00 0.000000e+00 0.000000e+00))
0.0002025     	((4.858587e-01 8.551116e+00 1.190982e+00) (3.930557e-03 2.582544e-01 -5.388813e-03) (0.000000e+00 0.000000e+00 0.000000e+00)) ((4.312370e+00 -1.121158e+01 8.055253e+01) (-2.666927e-01 5.473905e-02 2.537995e+00) (0.000000e+00 0.000000e+00 0.000000e+00))
0.000205      	((4.885966e-01 8.550352e+00 1.188040e+00) (3.943335e-03 2.582307e-01 -5.374890e-03) (0.000000e+00 0.000000e+00 0.000000e+00)) ((4.283431e+00 -1.117980e+01 8.051744e+01) (-2.665347e-01 5.461483e-02 2.537631e+00) (0.000000e+00 0.000000e+00 0.000000e+00))
0.0002075     	((4.912684e-01 8.549590e+00 1.185324e+00) (3.958070e-03 2.582089e-01 -5.365151e-03) (0.000000e+00 0.000000e+00 0.000000e+00)) ((4.256803e+00 -1.115036e+01 8.048301e+01) (-2.664203e-01 5.453363e-02 2.537267e+00) (0.000000e+00 0.000000e+00 0.000000e+00))
0.00021       	((4.938498e-01 8.548833e+00 1.182860e+00) (3.974607e-03 2.581881e-01 -5.358953e-03) (0.000000e+00 0.000000e+00 0.000000e+00)) ((4.232717e+00 -1.112353e+01 8.044951e+01) (-2.663421e-01 5.448892e-02 2.536894e+00) (0.000000e+00 0.000000e+00 0.000000e+00))
0.0002125     	((4.963181e-01 8.548082e+00 1.180663e+00) (3.992374e-03 2.581679e-01 -5.355858e-03) (0.000000e+00 0.000000e+00 0.000000e+00)) ((4.211319e+00 -1.109946e+01 8.041718e+01) (-2.662955e-01 5.447592e-02 2.536514e+00) (0.000000e+00 0.000000e+00 0.000000e+00))
0.000215      	((4.986650e-01 8.547374e+00 1.178718e+00) (4.010409e-03 2.581481e-01 -5.354853e-03) (0.000000e+00 0.000000e+00 0.000000e+00)) ((4.192420e+00 -1.107802e+01 8.038648e+01) (-2.662700e-01 5.448364e-02 2.536136e+00) (0.000000e+00 0.000000e+00 0.000000e+00))
0.0002175     	((5.009114e-01 8.546727e+00 1.177015e+00) (4.029245e-03 2.581284e-01 -5.355744e-03) (0.000000e+00 0.000000e+00 0.000000e+00)) ((4.175884e+00 -1.105909e+01 8.035737e+01) (-2.662638e-01 5.451052e-02 2.535750e+00) (0.000000e+00 0.000000e+00 0.000000e+00))
0.00022       	((5.030611e-01 8.546155e+00 1.175535e+00) (4.048154e-03 2.581089e-01 -5.357530e-03) (0.000000e+00 0.000000e+00 0.000000e+00)) ((4.161512e+00 -1.104249e+01 8.032995e+01) (-2.662668e-01 5.454594e-02 2.535366e+00) (0.000000e+00 0.000000e+00 0.000000e+00))
0.0002225     	((5.051101e-01 8.545658e+00 1.174268e+00) (4.066984e-03 2.580896e-01 -5.360070e-03) (0.000000e+00 0.000000e+00 0.000000e+00)) ((4.149198e+00 -1.102811e+01 8.030426e+01) (-2.662775e-01 5.458847e-02 2.534983e+00) (0.000000e+00 0.000000e+00 0.000000e+00))
0.000225      	((5.070517e-01 8.545229e+00 1.173191e+00) (4.085410e-03 2.580703e-01 -5.362636e-03) (0.000000e+00 0.000000e+00 0.000000e+00)) ((4.138731e+00 -1.101575e+01 8.028029e+01) (-2.662886e-01 5.463058e-02 2.534605e+00) (0.000000e+00 0.000000e+00 0.000000e+00))
0.0002275     	((5.088856e-01 8.544864e+00 1.172292e+00) (4.103592e-03 2.580511e-01 -5.365160e-03) (0.000000e+00 0.000000e+00 0.000000e+00)) ((4.129976e+00 -1.100528e+01 8.025801e+01) (-2.662994e-01 5.467179e-02 2.534229e+00) (0.000000e+00 0.000000e+00 0.000000e+00))
0.00023       	((5.106285e-01 8.544567e+00 1.171543e+00) (4.121381e-03 2.580320e-01 -5.367151e-03) (0.000000e+00 0.000000e+00 0.000000e+00)) ((4.122652e+00 -1.099640e+01 8.023729e+01) (-2.663048e-01 5.470705e-02 2.533859e+00) (0.000000e+00 0.000000e+00 0.000000e+00))
0.0002325     	((5.122935e-01 8.544340e+00 1.170926e+00) (4.138799e-03 2.580131e-01 -5.368752e-03) (0.000000e+00 0.000000e+00 0.000000e+00)) ((4.116589e+00 -1.098894e+01 8.021801e+01) (-2.663064e-01 5.473789e-02 2.533494e+00) (0.000000e+00 0.000000e+00 0.000000e+00))
0.000235      	((5.138994e-01 8.544181e+00 1.170416e+00) (4.155562e-03 2.579943e-01 -5.369576e-03) (0.000000e+00 0.000000e+00 0.000000e+00)) ((4.111539e+00 -1.098262e+01 8.019998e+01) (-2.663002e-01 5.476018e-02 2.533137e+00) (0.000000e+00 0.000000e+00 0.000000e+00))
0.0002375     	((5.154481e-01 8.544087e+00 1.169998e+00) (4.171678e-03 2.579759e-01 -5.369846e-03) (0.000000e+00 0.000000e+00 0.000000e+00)) ((4.107344e+00 -1.097728e+01 8.018315e+01) (-2.662886e-01 5.477626e-02 2.532789e+00) (0.000000e+00 0.000000e+00 0.000000e+00))
0.00024       	((5.169485e-01 8.544058e+00 1.169642e+00) (4.186987e-03 2.579578e-01 -5.369308e-03) (0.000000e+00 0.000000e+00 0.000000e+00)) ((4.103712e+00 -1.097260e+01 8.016743e+01) (-2.662692e-01 5.478342e-02 2.532453e+00) (0.000000e+00 0.000000e+00 0.000000e+00))
0.0002425     	((5.184012e-01 8.544090e+00 1.169337e+00) (4.201625e-03 2.579405e-01 -5.368289e-03) (0.000000e+00 0.000000e+00 0.000000e+00)) ((4.100534e+00 -1.096849e+01 8.015277e+01) (-2.662454e-01 5.478515e-02 2.532130e+00) (0.000000e+00 0.000000e+00 0.000000e+00))
0.000245      	((5.198171e-01 8.544177e+00 1.169074e+00) (4.216634e-03 2.579233e-01 -5.365361e-03) (0.000000e+00 0.000000e+00 0.000000e+00)) ((4.097737e+00 -1.096484e+01 8.013902e+01) (-2.662023e-01 5.476808e-02 2.531806e+00) (0.000000e+00 0.000000e+00 0.000000e+00))
0.0002475     	((5.212043e-01 8.544319e+00 1.168807e+00) (4.229792e-03 2.579079e-01 -5.365837e-03) (0.000000e+00 0.000000e+00 0.000000e+00)) ((4.094832e+00 -1.096115e+01 8.012611e+01) (-2.661954e-01 5.478338e-02 2.531518e+00) (0.000000e+00 0.000000e+00 0.000000e+00))
0.00025       	((5.225573e-01 8.544473e+00 1.168537e+00) (4.242720e-03 2.578952e-01 -5.364024e-03) (0.000000e+00 0.000000e+00 0.000000e+00)) ((4.091902e+00 -1.095747e+01 8.011365e+01) (-2.661678e-01 5.477557e-02 2.531259e+00) (0.000000e+00 0.000000e+00 0.000000e+00))
0.0002525     	((5.238007e-01 8.544596e+00 1.168291e+00) (4.253566e-03 2.578848e-01 -5.360525e-03) (0.000000e+00 0.000000e+00 0.000000e+00)) ((4.089239e+00 -1.095412e+01 8.010201e+01) (-2.661252e-01 5.474911e-02 2.531043e+00) (0.000000e+00 0.000000e+00 0.000000e+00))
0.000255      	((5.249466e-01 8.544667e+00 1.168063e+00) (4.264364e-03 2.578746e-01 -5.355213e-03) (0.000000e+00 0.000000e+00 0.000000e+00)) ((4.086827e+00 -1.095104e+01 8.009085e+01) (-2.660642e-01 5.470449e-02 2.530830e+00) (0.000000e+00 0.000000e+00 0.000000e+00))
0.0002575     	((5.260176e-01 8.544717e+00 1.167804e+00) (4.272522e-03 2.578657e-01 -5.352685e-03) (0.000000e+00 0.000000e+00 0.000000e+00)) ((4.084135e+00 -1.094771e+01 8.008025e+01) (-2.660322e-01 5.468548e-02 2.530657e+00) (0.000000e+00 0.000000e+00 0.000000e+00))
0.00026       	((5.270501e-01 8.544752e+00 1.167507e+00) (4.281297e-03 2.578573e-01 -5.348727e-03) (0.000000e+00 0.000000e+00 0.000000e+00)) ((4.081086e+00 -1.094402e+01 8.006992e+01) (-2.659858e-01 5.465284e-02 2.530483e+00) (0.000000e+00 0.000000e+00 0.000000e+00))
0.0002625     	((5.280306e-01 8.544772e+00 1.167188e+00) (4.290101e-03 2.578494e-01 -5.344751e-03) (0.000000e+00 0.000000e+00 0.000000e+00)) ((4.077831e+00 -1.094013e+01 8.005997e+01) (-2.659394e-01 5.462026e-02 2.530313e+00) (0.000000e+00 0.000000e+00 0.000000e+00))
0.000265      	((5.289446e-01 8.544768e+00 1.166851e+00) (4.299690e-03 2.578416e-01 -5.339466e-03) (0.000000e+00 0.000000e+00 0.000000e+00)) ((4.074437e+00 -1.093611e+01 8.005049e+01) (-2.658796e-01 5.457546e-02 2.530137e+00) (0.000000e+00 0.000000e+00 0.000000e+00))
0.0002675     	((5.297595e-01 8.544763e+00 1.166470e+00) (4.306751e-03 2.578355e-01 -5.337156e-03) (0.000000e+00 0.000000e+00 0.000000e+00)) ((4.070596e+00 -1.093172e+01 8.004203e+01) (-2.658511e-01 5.455838e-02 2.530003e+00) (0.000000e+00 0.000000e+00 0.000000e+00))
0.00027       	((5.304768e-01 8.544756e+00 1.166051e+00) (4.314094e-03 2.578300e-01 -5.333643e-03) (0.000000e+00 0.000000e+00 0.000000e+00)) ((4.066398e+00 -1.092702e+01 8.003457e+01) (-2.658108e-01 5.452965e-02 2.529873e+00) (0.000000e+00 0.000000e+00 0.000000e+00))
0.0002725     	((5.310751e-01 8.544745e+00 1.165624e+00) (4.321052e-03 2.578250e-01 -5.330326e-03) (0.000000e+00 0.000000e+00 0.000000e+00)) ((4.062119e+00 -1.092231e+01 8.002829e+01) (-2.657727e-01 5.450274e-02 2.529751e+00) (0.000000e+00 0.000000e+00 0.000000e+00))
0.000275      	((5.315493e-01 8.544721e+00 1.165195e+00) (4.328428e-03 2.578198e-01 -5.326035e-03) (0.000000e+00 0.000000e+00 0.000000e+00)) ((4.057857e+00 -1.091767e+01 8.002317e+01) (-2.657243e-01 5.446657e-02 2.529623e+00) (0.000000e+00 0.000000e+00 0.000000e+00))
0.0002775     	((5.318839e-01 8.544702e+00 1.164741e+00) (4.332964e-03 2.578160e-01 -5.324956e-03) (0.000000e+00 0.000000e+00 0.000000e+00)) ((4.053340e+00 -1.091289e+01 8.001955e+01) (-2.657095e-01 5.446022e-02 2.529538e+00) (0.000000e+00 0.000000e+00 0.000000e+00))